[ defaults ]
1  2  yes  0.5  0.8333333333

[ atomtypes ]
OW_spc     OW_spc     15.9994     0.0000     A     3.16557e-01     6.50629e-01
HW_spc     HW_spc      1.0080     0.0000     A     0.00000e+00     0.00000e+00

#include "PCRESOL_GMX.itp"
#include "/usr/share/gromacs/top/amber99sb.ff/spc.itp"

#ifdef POSRES_LIG
#include "posre_PCRESOL.itp"
#endif

[ system ]
PCRESOL in water

[ molecules ]
PCRESOL    1
SOL        631
