; PCRESOL_GMX.itp created by acpype (v: 2023.10.27) on Sat Sep 12 12:46:27 2026

[ atomtypes ]
;name   bond_type     mass     charge   ptype   sigma         epsilon       Amb
 c3       c3          0.00000  0.00000   A     3.39771e-01   4.51035e-01 ; 1.91  0.1078
 ca       ca          0.00000  0.00000   A     3.31521e-01   4.13379e-01 ; 1.86  0.0988
 oh       oh          0.00000  0.00000   A     3.24287e-01   3.89112e-01 ; 1.82  0.0930
 hc       hc          0.00000  0.00000   A     2.60018e-01   8.70272e-02 ; 1.46  0.0208
 ha       ha          0.00000  0.00000   A     2.62548e-01   6.73624e-02 ; 1.47  0.0161
 ho       ho          0.00000  0.00000   A     5.37925e-02   1.96648e-02 ; 0.30  0.0047

[ moleculetype ]
;name            nrexcl
 PCRESOL          3

[ atoms ]
;   nr  type  resi  res  atom  cgnr     charge      mass       ; qtot   bond_type
     1   c3     1   MOL    C1    1    -0.048800     12.01000 ; qtot -0.049
     2   ca     1   MOL    C2    2    -0.112300     12.01000 ; qtot -0.161
     3   ca     1   MOL    C3    3    -0.095000     12.01000 ; qtot -0.256
     4   ca     1   MOL    C4    4    -0.181500     12.01000 ; qtot -0.438
     5   ca     1   MOL    C5    5     0.118100     12.01000 ; qtot -0.320
     6   oh     1   MOL    O1    6    -0.497100     16.00000 ; qtot -0.817
     7   ca     1   MOL    C6    7    -0.181500     12.01000 ; qtot -0.998
     8   ca     1   MOL    C7    8    -0.095000     12.01000 ; qtot -1.093
     9   hc     1   MOL    H1    9     0.042700      1.00800 ; qtot -1.050
    10   hc     1   MOL    H2   10     0.042700      1.00800 ; qtot -1.008
    11   hc     1   MOL    H3   11     0.042700      1.00800 ; qtot -0.965
    12   ha     1   MOL    H4   12     0.133000      1.00800 ; qtot -0.832
    13   ha     1   MOL    H5   13     0.140500      1.00800 ; qtot -0.692
    14   ho     1   MOL    H6   14     0.418000      1.00800 ; qtot -0.274
    15   ha     1   MOL    H7   15     0.140500      1.00800 ; qtot -0.133
    16   ha     1   MOL    H8   16     0.133000      1.00800 ; qtot -0.000

[ bonds ]
;   ai     aj funct   r             k
     1      2   1    1.5147e-01    2.0410e+05 ;     C1 - C2    
     1      9   1    1.0962e-01    2.8891e+05 ;     C1 - H1    
     1     10   1    1.0962e-01    2.8891e+05 ;     C1 - H2    
     1     11   1    1.0962e-01    2.8891e+05 ;     C1 - H3    
     2      3   1    1.3986e-01    2.9644e+05 ;     C2 - C3    
     2      8   1    1.3986e-01    2.9644e+05 ;     C2 - C7    
     3      4   1    1.3986e-01    2.9644e+05 ;     C3 - C4    
     3     12   1    1.0860e-01    3.0183e+05 ;     C3 - H4    
     4      5   1    1.3986e-01    2.9644e+05 ;     C4 - C5    
     4     13   1    1.0860e-01    3.0183e+05 ;     C4 - H5    
     5      6   1    1.3644e-01    2.9167e+05 ;     C5 - O1    
     5      7   1    1.3986e-01    2.9644e+05 ;     C5 - C6    
     6     14   1    9.7250e-02    4.4811e+05 ;     O1 - H6    
     7      8   1    1.3986e-01    2.9644e+05 ;     C6 - C7    
     7     15   1    1.0860e-01    3.0183e+05 ;     C6 - H7    
     8     16   1    1.0860e-01    3.0183e+05 ;     C7 - H8    

[ pairs ]
;   ai     aj    funct
     1      4      1 ;     C1 - C4    
     1      7      1 ;     C1 - C6    
     1     12      1 ;     C1 - H4    
     1     16      1 ;     C1 - H8    
     2      5      1 ;     C2 - C5    
     2     13      1 ;     C2 - H5    
     2     15      1 ;     C2 - H7    
     3      6      1 ;     C3 - O1    
     3      7      1 ;     C3 - C6    
     3     16      1 ;     C3 - H8    
     4      8      1 ;     C4 - C7    
     4     14      1 ;     C4 - H6    
     4     15      1 ;     C4 - H7    
     5     12      1 ;     C5 - H4    
     5     16      1 ;     C5 - H8    
     6      8      1 ;     O1 - C7    
     6     13      1 ;     O1 - H5    
     6     15      1 ;     O1 - H7    
     7     13      1 ;     C6 - H5    
     7     14      1 ;     C6 - H6    
     8     12      1 ;     C7 - H4    
     9      3      1 ;     H1 - C3    
     9      8      1 ;     H1 - C7    
    10      3      1 ;     H2 - C3    
    10      8      1 ;     H2 - C7    
    11      3      1 ;     H3 - C3    
    11      8      1 ;     H3 - C7    
    12     13      1 ;     H4 - H5    
    15     16      1 ;     H7 - H8    

[ angles ]
;   ai     aj     ak    funct   theta         cth
     1      2      3      1    1.2083e+02    5.0827e+02 ;     C1 - C2     - C3    
     1      2      8      1    1.2083e+02    5.0827e+02 ;     C1 - C2     - C7    
     2      1      9      1    1.1063e+02    3.6493e+02 ;     C2 - C1     - H1    
     2      1     10      1    1.1063e+02    3.6493e+02 ;     C2 - C1     - H2    
     2      1     11      1    1.1063e+02    3.6493e+02 ;     C2 - C1     - H3    
     2      3      4      1    1.2002e+02    5.3279e+02 ;     C2 - C3     - C4    
     2      3     12      1    1.1988e+02    3.7572e+02 ;     C2 - C3     - H4    
     2      8      7      1    1.2002e+02    5.3279e+02 ;     C2 - C7     - C6    
     2      8     16      1    1.1988e+02    3.7572e+02 ;     C2 - C7     - H8    
     3      2      8      1    1.2002e+02    5.3279e+02 ;     C3 - C2     - C7    
     3      4      5      1    1.2002e+02    5.3279e+02 ;     C3 - C4     - C5    
     3      4     13      1    1.1988e+02    3.7572e+02 ;     C3 - C4     - H5    
     4      3     12      1    1.1988e+02    3.7572e+02 ;     C4 - C3     - H4    
     4      5      6      1    1.1990e+02    6.5990e+02 ;     C4 - C5     - O1    
     4      5      7      1    1.2002e+02    5.3279e+02 ;     C4 - C5     - C6    
     5      4     13      1    1.1988e+02    3.7572e+02 ;     C5 - C4     - H5    
     5      6     14      1    1.0858e+02    5.6409e+02 ;     C5 - O1     - H6    
     5      7      8      1    1.2002e+02    5.3279e+02 ;     C5 - C6     - C7    
     5      7     15      1    1.1988e+02    3.7572e+02 ;     C5 - C6     - H7    
     6      5      7      1    1.1990e+02    6.5990e+02 ;     O1 - C5     - C6    
     7      8     16      1    1.1988e+02    3.7572e+02 ;     C6 - C7     - H8    
     8      7     15      1    1.1988e+02    3.7572e+02 ;     C7 - C6     - H7    
     9      1     10      1    1.0773e+02    2.9957e+02 ;     H1 - C1     - H2    
     9      1     11      1    1.0773e+02    2.9957e+02 ;     H1 - C1     - H3    
    10      1     11      1    1.0773e+02    2.9957e+02 ;     H2 - C1     - H3    

[ dihedrals ] ; propers
; for gromacs 4.5 or higher, using funct 9
;    i      j      k      l   func   phase     kd      pn
     1      2      3      4      9   180.00  15.16700   2 ;     C1-    C2-    C3-    C4
     1      2      3     12      9   180.00  15.16700   2 ;     C1-    C2-    C3-    H4
     1      2      8      7      9   180.00  15.16700   2 ;     C1-    C2-    C7-    C6
     1      2      8     16      9   180.00  15.16700   2 ;     C1-    C2-    C7-    H8
     2      3      4      5      9   180.00  15.16700   2 ;     C2-    C3-    C4-    C5
     2      3      4     13      9   180.00  15.16700   2 ;     C2-    C3-    C4-    H5
     2      8      7      5      9   180.00  15.16700   2 ;     C2-    C7-    C6-    C5
     2      8      7     15      9   180.00  15.16700   2 ;     C2-    C7-    C6-    H7
     3      2      8      7      9   180.00  15.16700   2 ;     C3-    C2-    C7-    C6
     3      2      8     16      9   180.00  15.16700   2 ;     C3-    C2-    C7-    H8
     3      4      5      6      9   180.00  15.16700   2 ;     C3-    C4-    C5-    O1
     3      4      5      7      9   180.00  15.16700   2 ;     C3-    C4-    C5-    C6
     4      3      2      8      9   180.00  15.16700   2 ;     C4-    C3-    C2-    C7
     4      5      6     14      9   180.00   3.57732   2 ;     C4-    C5-    O1-    H6
     4      5      7      8      9   180.00  15.16700   2 ;     C4-    C5-    C6-    C7
     4      5      7     15      9   180.00  15.16700   2 ;     C4-    C5-    C6-    H7
     5      4      3     12      9   180.00  15.16700   2 ;     C5-    C4-    C3-    H4
     5      7      8     16      9   180.00  15.16700   2 ;     C5-    C6-    C7-    H8
     6      5      4     13      9   180.00  15.16700   2 ;     O1-    C5-    C4-    H5
     6      5      7      8      9   180.00  15.16700   2 ;     O1-    C5-    C6-    C7
     6      5      7     15      9   180.00  15.16700   2 ;     O1-    C5-    C6-    H7
     7      5      4     13      9   180.00  15.16700   2 ;     C6-    C5-    C4-    H5
     7      5      6     14      9   180.00   3.57732   2 ;     C6-    C5-    O1-    H6
     8      2      3     12      9   180.00  15.16700   2 ;     C7-    C2-    C3-    H4
     9      1      2      3      9     0.00   0.00000   0 ;     H1-    C1-    C2-    C3
     9      1      2      8      9     0.00   0.00000   0 ;     H1-    C1-    C2-    C7
    10      1      2      3      9     0.00   0.00000   0 ;     H2-    C1-    C2-    C3
    10      1      2      8      9     0.00   0.00000   0 ;     H2-    C1-    C2-    C7
    11      1      2      3      9     0.00   0.00000   0 ;     H3-    C1-    C2-    C3
    11      1      2      8      9     0.00   0.00000   0 ;     H3-    C1-    C2-    C7
    12      3      4     13      9   180.00  15.16700   2 ;     H4-    C3-    C4-    H5
    15      7      8     16      9   180.00  15.16700   2 ;     H7-    C6-    C7-    H8

[ dihedrals ] ; impropers
; treated as propers in GROMACS to use correct AMBER analytical function
;    i      j      k      l   func   phase     kd      pn
     1      2      8      3      4   180.00   4.60240   2 ;     C1-    C2-    C7-    C3
     2      4      3     12      4   180.00   4.60240   2 ;     C2-    C4-    C3-    H4
     2      7      8     16      4   180.00   4.60240   2 ;     C2-    C6-    C7-    H8
     3      5      4     13      4   180.00   4.60240   2 ;     C3-    C5-    C4-    H5
     4      7      5      6      4   180.00  43.93200   2 ;     C4-    C6-    C5-    O1
     5      8      7     15      4   180.00   4.60240   2 ;     C5-    C7-    C6-    H7
