; PHENOL_GMX.top created by acpype (v: 2023.10.27) on Tue Sep  1 15:32:39 2026

[ defaults ]
; nbfunc        comb-rule       gen-pairs       fudgeLJ fudgeQQ
1               2               yes             0.5     0.8333333333

[ atomtypes ]
OW_spc     OW_spc     15.9994     0.0000     A     3.16557e-01     6.50629e-01
HW_spc     HW_spc      1.0080     0.0000     A     0.00000e+00     0.00000e+00
;name   bond_type     mass     charge   ptype   sigma         epsilon       Amb
 oh       oh          0.00000  0.00000   A     3.24287e-01   3.89112e-01 ; 1.82  0.0930
 ca       ca          0.00000  0.00000   A     3.31521e-01   4.13379e-01 ; 1.86  0.0988
 ho       ho          0.00000  0.00000   A     5.37925e-02   1.96648e-02 ; 0.30  0.0047
 ha       ha          0.00000  0.00000   A     2.62548e-01   6.73624e-02 ; 1.47  0.0161

[ moleculetype ]
;name            nrexcl
 PHENOL              3

[ atoms ]
;   nr  type  resi  res  atom  cgnr     charge      mass       ; qtot   bond_type
     1   oh     1   PHENOL    O1    1    -0.498100     16.00000 ; qtot -0.498
     2   ca     1   PHENOL    C1    2     0.123100     12.01000 ; qtot -0.375
     3   ca     1   PHENOL    C2    3    -0.185000     12.01000 ; qtot -0.560
     4   ca     1   PHENOL    C3    4    -0.094500     12.01000 ; qtot -0.654
     5   ca     1   PHENOL    C4    5    -0.166000     12.01000 ; qtot -0.821
     6   ca     1   PHENOL    C5    6    -0.094500     12.01000 ; qtot -0.915
     7   ca     1   PHENOL    C6    7    -0.185000     12.01000 ; qtot -1.100
     8   ho     1   PHENOL    H1    8     0.418000      1.00800 ; qtot -0.682
     9   ha     1   PHENOL    H2    9     0.141500      1.00800 ; qtot -0.541
    10   ha     1   PHENOL    H3   10     0.133000      1.00800 ; qtot -0.408
    11   ha     1   PHENOL    H4   11     0.133000      1.00800 ; qtot -0.275
    12   ha     1   PHENOL    H5   12     0.133000      1.00800 ; qtot -0.142
    13   ha     1   PHENOL    H6   13     0.141500      1.00800 ; qtot -0.000

[ bonds ]
;   ai     aj funct   r             k
     1      2   1    1.3644e-01    2.9167e+05 ;     O1 - C1    
     1      8   1    9.7250e-02    4.4811e+05 ;     O1 - H1    
     2      3   1    1.3986e-01    2.9644e+05 ;     C1 - C2    
     2      7   1    1.3986e-01    2.9644e+05 ;     C1 - C6    
     3      4   1    1.3986e-01    2.9644e+05 ;     C2 - C3    
     3      9   1    1.0860e-01    3.0183e+05 ;     C2 - H2    
     4      5   1    1.3986e-01    2.9644e+05 ;     C3 - C4    
     4     10   1    1.0860e-01    3.0183e+05 ;     C3 - H3    
     5      6   1    1.3986e-01    2.9644e+05 ;     C4 - C5    
     5     11   1    1.0860e-01    3.0183e+05 ;     C4 - H4    
     6      7   1    1.3986e-01    2.9644e+05 ;     C5 - C6    
     6     12   1    1.0860e-01    3.0183e+05 ;     C5 - H5    
     7     13   1    1.0860e-01    3.0183e+05 ;     C6 - H6    

[ pairs ]
;   ai     aj    funct
     1      4      1 ;     O1 - C3    
     1      6      1 ;     O1 - C5    
     1      9      1 ;     O1 - H2    
     1     13      1 ;     O1 - H6    
     2      5      1 ;     C1 - C4    
     2     10      1 ;     C1 - H3    
     2     12      1 ;     C1 - H5    
     3      6      1 ;     C2 - C5    
     3     11      1 ;     C2 - H4    
     3     13      1 ;     C2 - H6    
     4      7      1 ;     C3 - C6    
     4     12      1 ;     C3 - H5    
     5      9      1 ;     C4 - H2    
     5     13      1 ;     C4 - H6    
     6     10      1 ;     C5 - H3    
     7      9      1 ;     C6 - H2    
     7     11      1 ;     C6 - H4    
     8      3      1 ;     H1 - C2    
     8      7      1 ;     H1 - C6    
     9     10      1 ;     H2 - H3    
    10     11      1 ;     H3 - H4    
    11     12      1 ;     H4 - H5    
    12     13      1 ;     H5 - H6    

[ angles ]
;   ai     aj     ak    funct   theta         cth
     1      2      3      1    1.1990e+02    6.5990e+02 ;     O1 - C1     - C2    
     1      2      7      1    1.1990e+02    6.5990e+02 ;     O1 - C1     - C6    
     2      1      8      1    1.0858e+02    5.6409e+02 ;     C1 - O1     - H1    
     2      3      4      1    1.2002e+02    5.3279e+02 ;     C1 - C2     - C3    
     2      3      9      1    1.1988e+02    3.7572e+02 ;     C1 - C2     - H2    
     2      7      6      1    1.2002e+02    5.3279e+02 ;     C1 - C6     - C5    
     2      7     13      1    1.1988e+02    3.7572e+02 ;     C1 - C6     - H6    
     3      2      7      1    1.2002e+02    5.3279e+02 ;     C2 - C1     - C6    
     3      4      5      1    1.2002e+02    5.3279e+02 ;     C2 - C3     - C4    
     3      4     10      1    1.1988e+02    3.7572e+02 ;     C2 - C3     - H3    
     4      3      9      1    1.1988e+02    3.7572e+02 ;     C3 - C2     - H2    
     4      5      6      1    1.2002e+02    5.3279e+02 ;     C3 - C4     - C5    
     4      5     11      1    1.1988e+02    3.7572e+02 ;     C3 - C4     - H4    
     5      4     10      1    1.1988e+02    3.7572e+02 ;     C4 - C3     - H3    
     5      6      7      1    1.2002e+02    5.3279e+02 ;     C4 - C5     - C6    
     5      6     12      1    1.1988e+02    3.7572e+02 ;     C4 - C5     - H5    
     6      5     11      1    1.1988e+02    3.7572e+02 ;     C5 - C4     - H4    
     6      7     13      1    1.1988e+02    3.7572e+02 ;     C5 - C6     - H6    
     7      6     12      1    1.1988e+02    3.7572e+02 ;     C6 - C5     - H5    

[ dihedrals ] ; propers
; for gromacs 4.5 or higher, using funct 9
;    i      j      k      l   func   phase     kd      pn
     1      2      3      4      9   180.00  15.16700   2 ;     O1-    C1-    C2-    C3
     1      2      3      9      9   180.00  15.16700   2 ;     O1-    C1-    C2-    H2
     1      2      7      6      9   180.00  15.16700   2 ;     O1-    C1-    C6-    C5
     1      2      7     13      9   180.00  15.16700   2 ;     O1-    C1-    C6-    H6
     2      3      4      5      9   180.00  15.16700   2 ;     C1-    C2-    C3-    C4
     2      3      4     10      9   180.00  15.16700   2 ;     C1-    C2-    C3-    H3
     2      7      6      5      9   180.00  15.16700   2 ;     C1-    C6-    C5-    C4
     2      7      6     12      9   180.00  15.16700   2 ;     C1-    C6-    C5-    H5
     3      2      7      6      9   180.00  15.16700   2 ;     C2-    C1-    C6-    C5
     3      2      7     13      9   180.00  15.16700   2 ;     C2-    C1-    C6-    H6
     3      4      5      6      9   180.00  15.16700   2 ;     C2-    C3-    C4-    C5
     3      4      5     11      9   180.00  15.16700   2 ;     C2-    C3-    C4-    H4
     4      3      2      7      9   180.00  15.16700   2 ;     C3-    C2-    C1-    C6
     4      5      6      7      9   180.00  15.16700   2 ;     C3-    C4-    C5-    C6
     4      5      6     12      9   180.00  15.16700   2 ;     C3-    C4-    C5-    H5
     5      4      3      9      9   180.00  15.16700   2 ;     C4-    C3-    C2-    H2
     5      6      7     13      9   180.00  15.16700   2 ;     C4-    C5-    C6-    H6
     6      5      4     10      9   180.00  15.16700   2 ;     C5-    C4-    C3-    H3
     7      2      3      9      9   180.00  15.16700   2 ;     C6-    C1-    C2-    H2
     7      6      5     11      9   180.00  15.16700   2 ;     C6-    C5-    C4-    H4
     8      1      2      3      9   180.00   3.57732   2 ;     H1-    O1-    C1-    C2
     8      1      2      7      9   180.00   3.57732   2 ;     H1-    O1-    C1-    C6
     9      3      4     10      9   180.00  15.16700   2 ;     H2-    C2-    C3-    H3
    10      4      5     11      9   180.00  15.16700   2 ;     H3-    C3-    C4-    H4
    11      5      6     12      9   180.00  15.16700   2 ;     H4-    C4-    C5-    H5
    12      6      7     13      9   180.00  15.16700   2 ;     H5-    C5-    C6-    H6

[ dihedrals ] ; impropers
; treated as propers in GROMACS to use correct AMBER analytical function
;    i      j      k      l   func   phase     kd      pn
     1      2      7      3      4   180.00  43.93200   2 ;     O1-    C1-    C6-    C2
     2      4      3      9      4   180.00   4.60240   2 ;     C1-    C3-    C2-    H2
     2      6      7     13      4   180.00   4.60240   2 ;     C1-    C5-    C6-    H6
     3      5      4     10      4   180.00   4.60240   2 ;     C2-    C4-    C3-    H3
     4      6      5     11      4   180.00   4.60240   2 ;     C3-    C5-    C4-    H4
     5      7      6     12      4   180.00   4.60240   2 ;     C4-    C6-    C5-    H5

#include "/usr/share/gromacs/top/amber99sb.ff/spc.itp"
[ system ]
PHENOL in water

[ molecules ]
; Compound        nmols
 PHENOL              1     
SOL               563
