CATECHOL_GMX.gro created by acpype (v: 2023.10.27) on Wed Sep 23 06:23:07 2026
 14
    1  MOL   O1    1   0.181  -0.147  -0.036
    1  MOL   C1    2   0.070  -0.067  -0.014
    1  MOL   C2    3  -0.055  -0.125   0.014
    1  MOL   C3    4  -0.167  -0.045   0.036
    1  MOL   C4    5  -0.155   0.095   0.031
    1  MOL   C5    6  -0.031   0.153   0.004
    1  MOL   C6    7   0.082   0.073  -0.019
    1  MOL   O2    8   0.204   0.135  -0.046
    1  MOL   H1    9   0.176  -0.248  -0.033
    1  MOL   H2   10  -0.065  -0.233   0.018
    1  MOL   H3   11  -0.263  -0.090   0.057
    1  MOL   H4   12  -0.242   0.157   0.048
    1  MOL   H5   13  -0.023   0.261  -0.000
    1  MOL   H6   14   0.288   0.081  -0.063
   11.01800    10.18800     2.40400
