CATECHOL_GMX.gro created by acpype (v: 2023.10.27) on Wed Sep 23 06:23:07 2026
 1712
    1MOL     O1    1   1.476   1.148   1.259
    1MOL     C1    2   1.365   1.228   1.281
    1MOL     C2    3   1.240   1.170   1.309
    1MOL     C3    4   1.128   1.250   1.331
    1MOL     C4    5   1.140   1.390   1.326
    1MOL     C5    6   1.264   1.448   1.299
    1MOL     C6    7   1.377   1.368   1.276
    1MOL     O2    8   1.499   1.430   1.249
    1MOL     H1    9   1.471   1.047   1.262
    1MOL     H2   10   1.230   1.062   1.313
    1MOL     H3   11   1.032   1.205   1.352
    1MOL     H4   12   1.053   1.452   1.343
    1MOL     H5   13   1.272   1.556   1.295
    1MOL     H6   14   1.583   1.376   1.232
    2SOL     OW   15   0.230   0.628   0.113
    2SOL    HW1   16   0.137   0.626   0.150
    2SOL    HW2   17   0.231   0.589   0.021
    3SOL     OW   18   0.225   0.275   0.996
    3SOL    HW1   19   0.260   0.258   1.088
    3SOL    HW2   20   0.137   0.230   0.984
    4SOL     OW   21   0.019   0.368   0.647
    4SOL    HW1   22  -0.063   0.411   0.686
    4SOL    HW2   23  -0.009   0.295   0.584
    5SOL     OW   24   0.569   1.275   1.165
    5SOL    HW1   25   0.476   1.268   1.128
    5SOL    HW2   26   0.580   1.364   1.209
    6SOL     OW   27   1.555   1.511   0.703
    6SOL    HW1   28   1.498   1.495   0.784
    6SOL    HW2   29   1.496   1.521   0.623
    7SOL     OW   30   1.135   0.703   0.717
    7SOL    HW1   31   1.192   0.781   0.692
    7SOL    HW2   32   1.075   0.729   0.793
    8SOL     OW   33   1.755   0.607   0.231
    8SOL    HW1   34   1.743   0.594   0.132
    8SOL    HW2   35   1.725   0.526   0.280
    9SOL     OW   36   0.768   1.144   1.023
    9SOL    HW1   37   0.690   1.161   1.083
    9SOL    HW2   38   0.802   1.231   0.987
   10SOL     OW   39   0.850   0.798   1.823
   10SOL    HW1   40   0.846   0.874   1.888
   10SOL    HW2   41   0.872   0.834   1.732
   11SOL     OW   42   0.685   1.012   0.665
   11SOL    HW1   43   0.754   0.996   0.735
   11SOL    HW2   44   0.612   1.069   0.703
   12SOL     OW   45   0.686   1.161   1.803
   12SOL    HW1   46   0.746   1.240   1.817
   12SOL    HW2   47   0.600   1.192   1.762
   13SOL     OW   48   0.335   1.435   1.061
   13SOL    HW1   49   0.257   1.404   1.008
   13SOL    HW2   50   0.393   1.493   1.004
   14SOL     OW   51   0.438   0.392   1.499
   14SOL    HW1   52   0.520   0.336   1.508
   14SOL    HW2   53   0.357   0.334   1.503
   15SOL     OW   54   1.603   0.447   0.737
   15SOL    HW1   55   1.529   0.493   0.687
   15SOL    HW2   56   1.654   0.515   0.790
   16SOL     OW   57   0.231   1.713   0.483
   16SOL    HW1   58   0.265   1.790   0.537
   16SOL    HW2   59   0.275   1.713   0.393
   17SOL     OW   60   1.127   1.341   1.690
   17SOL    HW1   61   1.174   1.341   1.778
   17SOL    HW2   62   1.079   1.254   1.679
   18SOL     OW   63   0.230   1.434   0.538
   18SOL    HW1   64   0.204   1.530   0.538
   18SOL    HW2   65   0.159   1.380   0.583
   19SOL     OW   66   0.240   1.091   0.886
   19SOL    HW1   67   0.254   1.007   0.938
   19SOL    HW2   68   0.185   1.155   0.941
   20SOL     OW   69   0.620   1.786   1.439
   20SOL    HW1   70   0.528   1.769   1.474
   20SOL    HW2   71   0.648   1.878   1.465
   21SOL     OW   72   0.606   0.964   0.123
   21SOL    HW1   73   0.613   1.048   0.069
   21SOL    HW2   74   0.652   0.977   0.211
   22SOL     OW   75   1.594   0.114   1.480
   22SOL    HW1   76   1.576   0.181   1.408
   22SOL    HW2   77   1.591   0.160   1.569
   23SOL     OW   78   0.122   0.643   0.563
   23SOL    HW1   79   0.077   0.555   0.580
   23SOL    HW2   80   0.121   0.697   0.647
   24SOL     OW   81   1.842   1.767   0.359
   24SOL    HW1   82   1.896   1.738   0.439
   24SOL    HW2   83   1.872   1.857   0.330
   25SOL     OW   84   0.027   1.596   0.117
   25SOL    HW1   85   0.008   1.500   0.138
   25SOL    HW2   86  -0.006   1.654   0.192
   26SOL     OW   87   1.689   0.922   0.612
   26SOL    HW1   88   1.784   0.893   0.620
   26SOL    HW2   89   1.681   0.987   0.537
   27SOL     OW   90   1.641   1.108   0.432
   27SOL    HW1   91   1.727   1.110   0.380
   27SOL    HW2   92   1.655   1.155   0.520
   28SOL     OW   93   0.113   0.737   1.597
   28SOL    HW1   94   0.201   0.724   1.642
   28SOL    HW2   95   0.100   0.834   1.575
   29SOL     OW   96   0.613   1.365   0.726
   29SOL    HW1   97   0.564   1.278   0.735
   29SOL    HW2   98   0.590   1.408   0.639
   30SOL     OW   99   0.809   0.004   0.502
   30SOL    HW1  100   0.849   0.095   0.493
   30SOL    HW2  101   0.709   0.012   0.508
   31SOL     OW  102   0.197   0.976   1.264
   31SOL    HW1  103   0.286   0.931   1.250
   31SOL    HW2  104   0.124   0.911   1.245
   32SOL     OW  105   1.525   0.999   0.190
   32SOL    HW1  106   1.462   0.923   0.203
   32SOL    HW2  107   1.573   1.017   0.276
   33SOL     OW  108   1.187   1.792   1.616
   33SOL    HW1  109   1.211   1.852   1.540
   33SOL    HW2  110   1.194   1.697   1.586
   34SOL     OW  111   0.317   0.251   1.801
   34SOL    HW1  112   0.388   0.322   1.807
   34SOL    HW2  113   0.229   0.290   1.829
   35SOL     OW  114   1.466   1.417   0.953
   35SOL    HW1  115   1.407   1.423   1.033
   35SOL    HW2  116   1.451   1.329   0.907
   36SOL     OW  117   1.667   1.714   0.572
   36SOL    HW1  118   1.626   1.691   0.484
   36SOL    HW2  119   1.649   1.640   0.637
   37SOL     OW  120   0.598   0.729   0.270
   37SOL    HW1  121   0.622   0.798   0.202
   37SOL    HW2  122   0.520   0.762   0.324
   38SOL     OW  123   1.281   0.345   0.944
   38SOL    HW1  124   1.195   0.295   0.931
   38SOL    HW2  125   1.343   0.291   1.000
   39SOL     OW  126   1.576   1.662   0.307
   39SOL    HW1  127   1.665   1.708   0.310
   39SOL    HW2  128   1.555   1.638   0.212
   40SOL     OW  129   0.807   0.605   1.465
   40SOL    HW1  130   0.760   0.602   1.554
   40SOL    HW2  131   0.756   0.550   1.399
   41SOL     OW  132   1.394   0.469   1.674
   41SOL    HW1  133   1.374   0.512   1.762
   41SOL    HW2  134   1.472   0.407   1.683
   42SOL     OW  135   0.973   0.890   1.572
   42SOL    HW1  136   1.019   0.806   1.543
   42SOL    HW2  137   0.917   0.924   1.497
   43SOL     OW  138   0.991   0.410   1.242
   43SOL    HW1  139   0.914   0.444   1.296
   43SOL    HW2  140   0.957   0.359   1.163
   44SOL     OW  141   1.041   0.701   0.429
   44SOL    HW1  142   1.067   0.697   0.525
   44SOL    HW2  143   0.956   0.650   0.415
   45SOL     OW  144   0.076   0.811   0.789
   45SOL    HW1  145   0.175   0.799   0.798
   45SOL    HW2  146   0.052   0.906   0.810
   46SOL     OW  147   0.130   1.821   1.571
   46SOL    HW1  148   0.120   1.806   1.670
   46SOL    HW2  149   0.044   1.857   1.535
   47SOL     OW  150   0.865   0.348   0.195
   47SOL    HW1  151   0.924   0.411   0.146
   47SOL    HW2  152   0.884   0.254   0.166
   48SOL     OW  153   1.719   0.585   1.831
   48SOL    HW1  154   1.693   0.674   1.795
   48SOL    HW2  155   1.717   0.517   1.758
   49SOL     OW  156   1.362   1.144   0.545
   49SOL    HW1  157   1.445   1.115   0.497
   49SOL    HW2  158   1.313   1.211   0.489
   50SOL     OW  159   0.550   0.196   0.885
   50SOL    HW1  160   0.545   0.191   0.985
   50SOL    HW2  161   0.552   0.292   0.856
   51SOL     OW  162   1.008   1.456   0.477
   51SOL    HW1  163   0.962   1.528   0.425
   51SOL    HW2  164   1.004   1.476   0.575
   52SOL     OW  165   0.351   1.801   0.853
   52SOL    HW1  166   0.401   1.715   0.859
   52SOL    HW2  167   0.416   1.878   0.850
   53SOL     OW  168   1.795   1.066   0.873
   53SOL    HW1  169   1.733   1.051   0.797
   53SOL    HW2  170   1.743   1.077   0.958
   54SOL     OW  171   1.227   1.550   1.506
   54SOL    HW1  172   1.233   1.473   1.570
   54SOL    HW2  173   1.175   1.524   1.426
   55SOL     OW  174   0.321   0.943   0.242
   55SOL    HW1  175   0.403   0.982   0.200
   55SOL    HW2  176   0.294   0.861   0.193
   56SOL     OW  177   1.458   0.735   0.728
   56SOL    HW1  178   1.453   0.670   0.803
   56SOL    HW2  179   1.538   0.794   0.741
   57SOL     OW  180   0.461   1.266   1.727
   57SOL    HW1  181   0.411   1.267   1.641
   57SOL    HW2  182   0.398   1.248   1.803
   58SOL     OW  183   1.111   1.776   0.237
   58SOL    HW1  184   1.051   1.714   0.287
   58SOL    HW2  185   1.142   1.732   0.152
   59SOL     OW  186   0.202   0.285   1.498
   59SOL    HW1  187   0.122   0.345   1.485
   59SOL    HW2  188   0.192   0.236   1.584
   60SOL     OW  189   1.632   1.377   0.081
   60SOL    HW1  190   1.600   1.471   0.071
   60SOL    HW2  191   1.556   1.314   0.069
   61SOL     OW  192   0.464   1.743   0.323
   61SOL    HW1  193   0.497   1.782   0.409
   61SOL    HW2  194   0.540   1.736   0.258
   62SOL     OW  195   1.400   0.107   0.426
   62SOL    HW1  196   1.376   0.070   0.336
   62SOL    HW2  197   1.499   0.123   0.430
   63SOL     OW  198   0.249   1.785   1.241
   63SOL    HW1  199   0.306   1.720   1.291
   63SOL    HW2  200   0.233   1.752   1.148
   64SOL     OW  201   0.940   1.698   0.904
   64SOL    HW1  202   1.020   1.641   0.925
   64SOL    HW2  203   0.891   1.658   0.827
   65SOL     OW  204   0.382   0.700   0.480
   65SOL    HW1  205   0.427   0.610   0.477
   65SOL    HW2  206   0.288   0.689   0.513
   66SOL     OW  207   1.547   0.222   1.729
   66SOL    HW1  208   1.542   0.259   1.821
   66SOL    HW2  209   1.475   0.153   1.717
   67SOL     OW  210   0.614   0.122   0.117
   67SOL    HW1  211   0.712   0.100   0.124
   67SOL    HW2  212   0.583   0.105   0.024
   68SOL     OW  213   0.781   0.264   1.749
   68SOL    HW1  214   0.848   0.203   1.792
   68SOL    HW2  215   0.708   0.283   1.814
   69SOL     OW  216   0.888   1.514   1.195
   69SOL    HW1  217   0.865   1.489   1.101
   69SOL    HW2  218   0.949   1.445   1.234
   70SOL     OW  219   1.351   0.590   1.433
   70SOL    HW1  220   1.379   0.547   1.518
   70SOL    HW2  221   1.376   0.686   1.434
   71SOL     OW  222   0.803   1.402   0.924
   71SOL    HW1  223   0.893   1.416   0.882
   71SOL    HW2  224   0.732   1.404   0.853
   72SOL     OW  225   0.922   0.503   0.899
   72SOL    HW1  226   0.897   0.494   0.803
   72SOL    HW2  227   0.970   0.421   0.930
   73SOL     OW  228   0.539   0.064   0.512
   73SOL    HW1  229   0.458   0.065   0.570
   73SOL    HW2  230   0.542   0.147   0.457
   74SOL     OW  231   1.434   1.188   0.041
   74SOL    HW1  232   1.466   1.112   0.098
   74SOL    HW2  233   1.342   1.215   0.071
   75SOL     OW  234   0.297   0.035   0.171
   75SOL    HW1  235   0.346   0.119   0.150
   75SOL    HW2  236   0.359  -0.030   0.216
   76SOL     OW  237   0.935   0.236   0.480
   76SOL    HW1  238   0.887   0.277   0.402
   76SOL    HW2  239   1.034   0.234   0.461
   77SOL     OW  240   1.076   0.683   1.464
   77SOL    HW1  241   0.996   0.622   1.467
   77SOL    HW2  242   1.157   0.630   1.440
   78SOL     OW  243   1.227   1.570   0.793
   78SOL    HW1  244   1.248   1.644   0.728
   78SOL    HW2  245   1.295   1.570   0.866
   79SOL     OW  246   0.459   1.152   0.741
   79SOL    HW1  247   0.388   1.125   0.806
   79SOL    HW2  248   0.433   1.124   0.648
   80SOL     OW  249   1.271   1.797   0.591
   80SOL    HW1  250   1.315   1.861   0.527
   80SOL    HW2  251   1.221   1.849   0.661
   81SOL     OW  252   1.032   0.549   0.016
   81SOL    HW1  253   0.991   0.631  -0.023
   81SOL    HW2  254   1.096   0.575   0.089
   82SOL     OW  255   0.078   0.556   1.386
   82SOL    HW1  256   0.170   0.555   1.345
   82SOL    HW2  257   0.072   0.630   1.453
   83SOL     OW  258   0.561   0.222   1.147
   83SOL    HW1  259   0.599   0.138   1.184
   83SOL    HW2  260   0.473   0.241   1.191
   84SOL     OW  261   0.866   0.454   0.642
   84SOL    HW1  262   0.834   0.526   0.580
   84SOL    HW2  263   0.890   0.373   0.589
   85SOL     OW  264   1.017   0.039   0.753
   85SOL    HW1  265   0.945   0.044   0.684
   85SOL    HW2  266   0.993  -0.030   0.822
   86SOL     OW  267   1.429   1.173   0.867
   86SOL    HW1  268   1.374   1.089   0.860
   86SOL    HW2  269   1.455   1.202   0.775
   87SOL     OW  270   1.466   0.590   0.992
   87SOL    HW1  271   1.436   0.495   0.999
   87SOL    HW2  272   1.539   0.606   1.058
   88SOL     OW  273   1.857   0.833   0.377
   88SOL    HW1  274   1.899   0.769   0.441
   88SOL    HW2  275   1.819   0.782   0.299
   89SOL     OW  276   0.488   1.385   0.174
   89SOL    HW1  277   0.401   1.370   0.221
   89SOL    HW2  278   0.471   1.411   0.079
   90SOL     OW  279   1.664   1.280   0.657
   90SOL    HW1  280   1.763   1.288   0.671
   90SOL    HW2  281   1.619   1.364   0.688
   91SOL     OW  282   1.390   0.575   0.078
   91SOL    HW1  283   1.336   0.554   0.159
   91SOL    HW2  284   1.481   0.534   0.087
   92SOL     OW  285   0.527   0.256   0.328
   92SOL    HW1  286   0.554   0.197   0.253
   92SOL    HW2  287   0.527   0.351   0.297
   93SOL     OW  288   1.754   1.223   1.588
   93SOL    HW1  289   1.845   1.184   1.575
   93SOL    HW2  290   1.762   1.319   1.612
   94SOL     OW  291   1.592   1.629   1.625
   94SOL    HW1  292   1.619   1.663   1.535
   94SOL    HW2  293   1.671   1.591   1.671
   95SOL     OW  294   1.638   1.099   1.079
   95SOL    HW1  295   1.643   1.180   1.138
   95SOL    HW2  296   1.552   1.101   1.028
   96SOL     OW  297   0.915   0.089   1.402
   96SOL    HW1  298   0.940   0.069   1.307
   96SOL    HW2  299   0.987   0.145   1.444
   97SOL     OW  300   0.980   1.116   1.719
   97SOL    HW1  301   0.881   1.122   1.729
   97SOL    HW2  302   1.003   1.036   1.663
   98SOL     OW  303   0.705   1.050   0.368
   98SOL    HW1  304   0.691   1.057   0.467
   98SOL    HW2  305   0.789   0.999   0.350
   99SOL     OW  306   0.410   0.813   1.251
   99SOL    HW1  307   0.496   0.825   1.301
   99SOL    HW2  308   0.368   0.726   1.278
  100SOL     OW  309   1.274   0.386   1.262
  100SOL    HW1  310   1.295   0.460   1.326
  100SOL    HW2  311   1.185   0.403   1.219
  101SOL     OW  312   0.064   1.564   1.331
  101SOL    HW1  313   0.018   1.646   1.297
  101SOL    HW2  314   0.162   1.583   1.340
  102SOL     OW  315   0.367   1.100   0.501
  102SOL    HW1  316   0.360   1.183   0.445
  102SOL    HW2  317   0.371   1.020   0.441
  103SOL     OW  318   0.566   0.537   0.865
  103SOL    HW1  319   0.578   0.603   0.791
  103SOL    HW2  320   0.612   0.571   0.948
  104SOL     OW  321   1.252   1.348   0.388
  104SOL    HW1  322   1.302   1.425   0.428
  104SOL    HW2  323   1.157   1.350   0.420
  105SOL     OW  324   1.582   0.639   0.472
  105SOL    HW1  325   1.551   0.700   0.545
  105SOL    HW2  326   1.632   0.691   0.403
  106SOL     OW  327   0.354   1.510   1.329
  106SOL    HW1  328   0.333   1.466   1.242
  106SOL    HW2  329   0.451   1.536   1.332
  107SOL     OW  330   0.402   0.751   1.598
  107SOL    HW1  331   0.470   0.806   1.551
  107SOL    HW2  332   0.442   0.663   1.625
  108SOL     OW  333   1.587   0.779   1.670
  108SOL    HW1  334   1.495   0.817   1.665
  108SOL    HW2  335   1.647   0.826   1.605
  109SOL     OW  336   1.013   0.105   1.770
  109SOL    HW1  337   1.019   0.190   1.718
  109SOL    HW2  338   1.045   0.029   1.713
  110SOL     OW  339   0.504   0.050   1.740
  110SOL    HW1  340   0.462  -0.007   1.670
  110SOL    HW2  341   0.438   0.119   1.772
  111SOL     OW  342   0.573   0.870   1.029
  111SOL    HW1  343   0.617   0.959   1.020
  111SOL    HW2  344   0.510   0.870   1.106
  112SOL     OW  345   1.360   0.862   1.045
  112SOL    HW1  346   1.285   0.862   0.979
  112SOL    HW2  347   1.397   0.770   1.054
  113SOL     OW  348   1.209   0.525   0.275
  113SOL    HW1  349   1.222   0.441   0.329
  113SOL    HW2  350   1.180   0.599   0.335
  114SOL     OW  351   0.307   0.213   1.231
  114SOL    HW1  352   0.284   0.250   1.321
  114SOL    HW2  353   0.277   0.118   1.225
  115SOL     OW  354   0.037   1.310   1.282
  115SOL    HW1  355   0.090   1.261   1.350
  115SOL    HW2  356   0.059   1.408   1.287
  116SOL     OW  357   0.732   0.634   1.064
  116SOL    HW1  358   0.791   0.608   0.988
  116SOL    HW2  359   0.704   0.730   1.053
  117SOL     OW  360   1.728   0.935   1.854
  117SOL    HW1  361   1.682   0.928   1.765
  117SOL    HW2  362   1.666   0.979   1.920
  118SOL     OW  363   0.307   0.063   0.618
  118SOL    HW1  364   0.296   0.157   0.651
  118SOL    HW2  365   0.302   0.000   0.695
  119SOL     OW  366   1.622   0.367   0.374
  119SOL    HW1  367   1.624   0.291   0.438
  119SOL    HW2  368   1.574   0.444   0.414
  120SOL     OW  369   1.023   0.766   0.966
  120SOL    HW1  370   1.038   0.787   1.062
  120SOL    HW2  371   0.993   0.671   0.957
  121SOL     OW  372   0.980   1.573   1.700
  121SOL    HW1  373   0.960   1.617   1.612
  121SOL    HW2  374   1.019   1.482   1.684
  122SOL     OW  375   1.859   1.518   1.605
  122SOL    HW1  376   1.873   1.545   1.510
  122SOL    HW2  377   1.942   1.540   1.658
  123SOL     OW  378   0.350   0.898   1.804
  123SOL    HW1  379   0.426   0.942   1.852
  123SOL    HW2  380   0.385   0.851   1.722
  124SOL     OW  381   1.540   0.274   0.125
  124SOL    HW1  382   1.479   0.199   0.148
  124SOL    HW2  383   1.562   0.326   0.208
  125SOL     OW  384   1.303   0.838   0.042
  125SOL    HW1  385   1.337   0.745   0.057
  125SOL    HW2  386   1.321   0.865  -0.053
  126SOL     OW  387   1.068   1.333   0.849
  126SOL    HW1  388   1.075   1.249   0.794
  126SOL    HW2  389   1.130   1.402   0.813
  127SOL     OW  390   0.319   0.810   0.949
  127SOL    HW1  391   0.412   0.846   0.954
  127SOL    HW2  392   0.313   0.725   1.001
  128SOL     OW  393   0.339   0.509   1.006
  128SOL    HW1  394   0.287   0.426   0.989
  128SOL    HW2  395   0.416   0.514   0.942
  129SOL     OW  396   1.138   0.380   1.678
  129SOL    HW1  397   1.093   0.443   1.742
  129SOL    HW2  398   1.231   0.411   1.661
  130SOL     OW  399   1.160   0.207   1.477
  130SOL    HW1  400   1.160   0.271   1.554
  130SOL    HW2  401   1.188   0.255   1.394
  131SOL     OW  402   0.008   1.326   0.200
  131SOL    HW1  403  -0.085   1.347   0.169
  131SOL    HW2  404   0.018   1.227   0.213
  132SOL     OW  405   0.088   1.801   0.927
  132SOL    HW1  406   0.046   1.715   0.900
  132SOL    HW2  407   0.182   1.804   0.893
  133SOL     OW  408   0.504   1.568   0.910
  133SOL    HW1  409   0.570   1.642   0.919
  133SOL    HW2  410   0.548   1.489   0.868
  134SOL     OW  411   1.002   0.796   1.238
  134SOL    HW1  412   1.043   0.764   1.324
  134SOL    HW2  413   0.906   0.769   1.235
  135SOL     OW  414   0.040   0.544   1.114
  135SOL    HW1  415   0.125   0.511   1.073
  135SOL    HW2  416   0.053   0.559   1.212
  136SOL     OW  417   0.189   0.520   1.722
  136SOL    HW1  418   0.248   0.480   1.652
  136SOL    HW2  419   0.131   0.591   1.681
  137SOL     OW  420   1.369   0.950   1.660
  137SOL    HW1  421   1.408   1.039   1.680
  137SOL    HW2  422   1.379   0.930   1.563
  138SOL     OW  423   0.815   0.572   0.325
  138SOL    HW1  424   0.822   0.483   0.279
  138SOL    HW2  425   0.721   0.606   0.317
  139SOL     OW  426   1.657   0.604   1.206
  139SOL    HW1  427   1.619   0.535   1.268
  139SOL    HW2  428   1.739   0.568   1.162
  140SOL     OW  429   0.252   1.564   1.744
  140SOL    HW1  430   0.222   1.621   1.820
  140SOL    HW2  431   0.245   1.467   1.770
  141SOL     OW  432   0.671   0.464   1.269
  141SOL    HW1  433   0.637   0.375   1.239
  141SOL    HW2  434   0.697   0.518   1.189
  142SOL     OW  435   0.930   1.678   1.465
  142SOL    HW1  436   0.906   1.660   1.370
  142SOL    HW2  437   0.960   1.772   1.475
  143SOL     OW  438   0.473   0.500   0.191
  143SOL    HW1  439   0.534   0.580   0.195
  143SOL    HW2  440   0.378   0.531   0.198
  144SOL     OW  441   0.159   1.137   1.466
  144SOL    HW1  442   0.181   1.076   1.542
  144SOL    HW2  443   0.169   1.088   1.380
  145SOL     OW  444   1.302   0.855   0.309
  145SOL    HW1  445   1.216   0.824   0.351
  145SOL    HW2  446   1.298   0.841   0.210
  146SOL     OW  447   1.759   1.747   1.154
  146SOL    HW1  448   1.820   1.777   1.081
  146SOL    HW2  449   1.721   1.658   1.132
  147SOL     OW  450   1.252   1.731   1.128
  147SOL    HW1  451   1.336   1.736   1.074
  147SOL    HW2  452   1.229   1.635   1.146
  148SOL     OW  453   0.083   1.258   1.022
  148SOL    HW1  454   0.078   1.257   1.122
  148SOL    HW2  455   0.000   1.217   0.984
  149SOL     OW  456   0.688   1.662   1.716
  149SOL    HW1  457   0.632   1.743   1.725
  149SOL    HW2  458   0.740   1.666   1.630
  150SOL     OW  459   0.903   0.086   0.133
  150SOL    HW1  460   0.954   0.087   0.047
  150SOL    HW2  461   0.959   0.044   0.204
  151SOL     OW  462   1.726   0.135   0.523
  151SOL    HW1  463   1.799   0.118   0.456
  151SOL    HW2  464   1.695   0.048   0.561
  152SOL     OW  465   1.388   1.573   0.477
  152SOL    HW1  466   1.455   1.585   0.403
  152SOL    HW2  467   1.348   1.662   0.500
  153SOL     OW  468   0.130   1.794   1.851
  153SOL    HW1  469   0.089   1.720   1.904
  153SOL    HW2  470   0.194   1.845   1.909
  154SOL     OW  471   1.280   0.927   0.672
  154SOL    HW1  472   1.340   0.846   0.674
  154SOL    HW2  473   1.320   0.996   0.612
  155SOL     OW  474   0.830   1.273   1.422
  155SOL    HW1  475   0.825   1.306   1.517
  155SOL    HW2  476   0.744   1.292   1.376
  156SOL     OW  477   0.672   1.616   0.154
  156SOL    HW1  478   0.681   1.626   0.055
  156SOL    HW2  479   0.632   1.527   0.175
  157SOL     OW  480   1.650   1.720   1.394
  157SOL    HW1  481   1.703   1.730   1.310
  157SOL    HW2  482   1.623   1.810   1.428
  158SOL     OW  483   1.841   0.175   0.963
  158SOL    HW1  484   1.880   0.090   0.927
  158SOL    HW2  485   1.743   0.177   0.944
  159SOL     OW  486   0.263   0.326   0.720
  159SOL    HW1  487   0.184   0.377   0.686
  159SOL    HW2  488   0.254   0.311   0.818
  160SOL     OW  489   1.194   1.612   0.031
  160SOL    HW1  490   1.200   1.519   0.068
  160SOL    HW2  491   1.135   1.612  -0.049
  161SOL     OW  492   0.822   1.002   1.372
  161SOL    HW1  493   0.862   1.001   1.280
  161SOL    HW2  494   0.832   1.094   1.412
  162SOL     OW  495   0.916   0.910   0.291
  162SOL    HW1  496   0.979   0.948   0.223
  162SOL    HW2  497   0.956   0.827   0.330
  163SOL     OW  498   1.504   1.607   0.044
  163SOL    HW1  499   1.412   1.644   0.051
  163SOL    HW2  500   1.542   1.627  -0.046
  164SOL     OW  501   0.372   1.288   1.490
  164SOL    HW1  502   0.359   1.381   1.456
  164SOL    HW2  503   0.288   1.236   1.477
  165SOL     OW  504   1.039   1.098   0.696
  165SOL    HW1  505   0.969   1.051   0.750
  165SOL    HW2  506   1.098   1.030   0.653
  166SOL     OW  507   1.014   0.236   0.971
  166SOL    HW1  508   1.006   0.200   0.878
  166SOL    HW2  509   1.012   0.160   1.036
  167SOL     OW  510   0.590   1.487   0.491
  167SOL    HW1  511   0.632   1.429   0.421
  167SOL    HW2  512   0.546   1.566   0.447
  168SOL     OW  513   1.709   0.385   1.381
  168SOL    HW1  514   1.782   0.454   1.385
  168SOL    HW2  515   1.737   0.310   1.322
  169SOL     OW  516   0.255   1.348   0.290
  169SOL    HW1  517   0.159   1.349   0.263
  169SOL    HW2  518   0.267   1.401   0.374
  170SOL     OW  519   0.105   1.013   1.726
  170SOL    HW1  520   0.028   0.980   1.780
  170SOL    HW2  521   0.190   0.983   1.768
  171SOL     OW  522   0.672   0.203   1.489
  171SOL    HW1  523   0.762   0.187   1.449
  171SOL    HW2  524   0.680   0.208   1.588
  172SOL     OW  525   0.075   0.345   0.033
  172SOL    HW1  526  -0.017   0.317   0.004
  172SOL    HW2  527   0.106   0.422  -0.023
  173SOL     OW  528   1.440   0.856   1.398
  173SOL    HW1  529   1.383   0.908   1.335
  173SOL    HW2  530   1.536   0.868   1.374
  174SOL     OW  531   0.072   0.166   0.318
  174SOL    HW1  532   0.055   0.249   0.264
  174SOL    HW2  533   0.162   0.129   0.296
  175SOL     OW  534   1.183   1.335   0.119
  175SOL    HW1  535   1.084   1.324   0.121
  175SOL    HW2  536   1.217   1.350   0.212
  176SOL     OW  537   0.613   0.842   1.431
  176SOL    HW1  538   0.669   0.923   1.414
  176SOL    HW2  539   0.672   0.762   1.434
  177SOL     OW  540   1.493   1.767   0.959
  177SOL    HW1  541   1.526   1.831   0.890
  177SOL    HW2  542   1.559   1.761   1.034
  178SOL     OW  543   0.716   0.565   1.708
  178SOL    HW1  544   0.735   0.630   1.782
  178SOL    HW2  545   0.776   0.485   1.717
  179SOL     OW  546   1.450   1.220   1.633
  179SOL    HW1  547   1.441   1.210   1.732
  179SOL    HW2  548   1.546   1.213   1.607
  180SOL     OW  549   0.390   1.741   1.560
  180SOL    HW1  550   0.299   1.782   1.558
  180SOL    HW2  551   0.383   1.647   1.592
  181SOL     OW  552   1.674   0.883   1.254
  181SOL    HW1  553   1.647   0.794   1.217
  181SOL    HW2  554   1.675   0.951   1.181
  182SOL     OW  555   1.225   0.325   0.449
  182SOL    HW1  556   1.290   0.251   0.438
  182SOL    HW2  557   1.245   0.375   0.533
  183SOL     OW  558   0.594   0.745   0.652
  183SOL    HW1  559   0.644   0.830   0.633
  183SOL    HW2  560   0.506   0.747   0.604
  184SOL     OW  561   1.777   0.342   1.642
  184SOL    HW1  562   1.760   0.373   1.548
  184SOL    HW2  563   1.693   0.305   1.680
  185SOL     OW  564   1.730   0.934   1.517
  185SOL    HW1  565   1.768   1.025   1.532
  185SOL    HW2  566   1.722   0.917   1.418
  186SOL     OW  567   0.859   1.374   0.016
  186SOL    HW1  568   0.813   1.389   0.104
  186SOL    HW2  569   0.903   1.459  -0.014
  187SOL     OW  570   0.661   1.790   0.953
  187SOL    HW1  571   0.615   1.878   0.940
  187SOL    HW2  572   0.760   1.802   0.946
  188SOL     OW  573   0.859   0.956   0.861
  188SOL    HW1  574   0.913   0.887   0.909
  188SOL    HW2  575   0.827   1.025   0.927
  189SOL     OW  576   1.083   0.984   0.087
  189SOL    HW1  577   1.060   1.037   0.005
  189SOL    HW2  578   1.164   0.928   0.068
  190SOL     OW  579   1.861   1.569   0.851
  190SOL    HW1  580   1.790   1.557   0.781
  190SOL    HW2  581   1.862   1.490   0.911
  191SOL     OW  582   0.221   1.314   1.844
  191SOL    HW1  583   0.156   1.241   1.823
  191SOL    HW2  584   0.225   1.328   1.942
  192SOL     OW  585   0.079   1.240   0.653
  192SOL    HW1  586   0.078   1.193   0.741
  192SOL    HW2  587   0.161   1.212   0.602
  193SOL     OW  588   0.672   1.391   1.624
  193SOL    HW1  589   0.594   1.341   1.662
  193SOL    HW2  590   0.669   1.486   1.655
  194SOL     OW  591   1.824   0.192   1.227
  194SOL    HW1  592   1.820   0.102   1.271
  194SOL    HW2  593   1.827   0.181   1.128
  195SOL     OW  594   0.428   0.424   0.520
  195SOL    HW1  595   0.458   0.352   0.458
  195SOL    HW2  596   0.389   0.384   0.603
  196SOL     OW  597   1.705   1.487   1.104
  196SOL    HW1  598   1.612   1.462   1.077
  196SOL    HW2  599   1.731   1.437   1.186
  197SOL     OW  600   0.317   0.547   1.280
  197SOL    HW1  601   0.355   0.488   1.352
  197SOL    HW2  602   0.357   0.521   1.192
  198SOL     OW  603   0.812   1.586   0.687
  198SOL    HW1  604   0.844   1.596   0.593
  198SOL    HW2  605   0.733   1.524   0.689
  199SOL     OW  606   1.424   0.214   1.112
  199SOL    HW1  607   1.476   0.149   1.167
  199SOL    HW2  608   1.375   0.277   1.173
  200SOL     OW  609   1.001   0.034   1.154
  200SOL    HW1  610   0.938  -0.038   1.123
  200SOL    HW2  611   1.094  -0.002   1.154
  201SOL     OW  612   0.770   1.330   0.301
  201SOL    HW1  613   0.724   1.243   0.318
  201SOL    HW2  614   0.861   1.327   0.342
  202SOL     OW  615   0.618   1.567   1.284
  202SOL    HW1  616   0.613   1.649   1.341
  202SOL    HW2  617   0.707   1.564   1.239
  203SOL     OW  618   1.352   0.052   0.168
  203SOL    HW1  619   1.387   0.011   0.084
  203SOL    HW2  620   1.262   0.014   0.188
  204SOL     OW  621   1.300   0.453   0.691
  204SOL    HW1  622   1.241   0.533   0.695
  204SOL    HW2  623   1.315   0.418   0.784
  205SOL     OW  624   1.593   0.221   0.882
  205SOL    HW1  625   1.509   0.220   0.936
  205SOL    HW2  626   1.595   0.304   0.826
  206SOL     OW  627   0.039   1.077   0.300
  206SOL    HW1  628   0.138   1.066   0.291
  206SOL    HW2  629  -0.001   0.991   0.332
  207SOL     OW  630   0.875   1.646   0.337
  207SOL    HW1  631   0.798   1.611   0.283
  207SOL    HW2  632   0.843   1.717   0.399
  208SOL     OW  633   0.230   0.628   1.975
  208SOL    HW1  634   0.137   0.626   2.012
  208SOL    HW2  635   0.231   0.589   1.883
  209SOL     OW  636   1.755   0.607   2.093
  209SOL    HW1  637   1.743   0.594   1.994
  209SOL    HW2  638   1.725   0.526   2.142
  210SOL     OW  639   1.603   0.447   2.599
  210SOL    HW1  640   1.529   0.493   2.549
  210SOL    HW2  641   1.654   0.515   2.652
  211SOL     OW  642   0.231   1.713   2.345
  211SOL    HW1  643   0.265   1.790   2.399
  211SOL    HW2  644   0.275   1.713   2.255
  212SOL     OW  645   0.230   1.434   2.400
  212SOL    HW1  646   0.204   1.530   2.400
  212SOL    HW2  647   0.159   1.380   2.445
  213SOL     OW  648   0.606   0.964   1.985
  213SOL    HW1  649   0.613   1.048   1.931
  213SOL    HW2  650   0.652   0.977   2.073
  214SOL     OW  651   0.122   0.643   2.425
  214SOL    HW1  652   0.077   0.555   2.442
  214SOL    HW2  653   0.121   0.697   2.509
  215SOL     OW  654   1.842   1.767   2.221
  215SOL    HW1  655   1.896   1.738   2.301
  215SOL    HW2  656   1.872   1.857   2.192
  216SOL     OW  657   0.027   1.596   1.979
  216SOL    HW1  658   0.008   1.500   2.000
  216SOL    HW2  659  -0.006   1.654   2.054
  217SOL     OW  660   1.689   0.922   2.474
  217SOL    HW1  661   1.784   0.893   2.482
  217SOL    HW2  662   1.681   0.987   2.399
  218SOL     OW  663   1.641   1.108   2.294
  218SOL    HW1  664   1.727   1.110   2.242
  218SOL    HW2  665   1.655   1.155   2.382
  219SOL     OW  666   0.613   1.365   2.588
  219SOL    HW1  667   0.564   1.278   2.597
  219SOL    HW2  668   0.590   1.408   2.501
  220SOL     OW  669   0.809   0.004   2.364
  220SOL    HW1  670   0.849   0.095   2.355
  220SOL    HW2  671   0.709   0.012   2.370
  221SOL     OW  672   1.525   0.999   2.052
  221SOL    HW1  673   1.462   0.923   2.065
  221SOL    HW2  674   1.573   1.017   2.138
  222SOL     OW  675   1.466   1.417   2.815
  222SOL    HW1  676   1.407   1.423   2.895
  222SOL    HW2  677   1.451   1.329   2.769
  223SOL     OW  678   0.598   0.729   2.132
  223SOL    HW1  679   0.622   0.798   2.064
  223SOL    HW2  680   0.520   0.762   2.186
  224SOL     OW  681   1.281   0.345   2.806
  224SOL    HW1  682   1.195   0.295   2.793
  224SOL    HW2  683   1.343   0.291   2.862
  225SOL     OW  684   1.576   1.662   2.169
  225SOL    HW1  685   1.665   1.708   2.172
  225SOL    HW2  686   1.555   1.638   2.074
  226SOL     OW  687   1.041   0.701   2.291
  226SOL    HW1  688   1.067   0.697   2.387
  226SOL    HW2  689   0.956   0.650   2.277
  227SOL     OW  690   0.076   0.811   2.651
  227SOL    HW1  691   0.175   0.799   2.660
  227SOL    HW2  692   0.052   0.906   2.672
  228SOL     OW  693   0.865   0.348   2.057
  228SOL    HW1  694   0.924   0.411   2.008
  228SOL    HW2  695   0.884   0.254   2.028
  229SOL     OW  696   1.362   1.144   2.407
  229SOL    HW1  697   1.445   1.115   2.359
  229SOL    HW2  698   1.313   1.211   2.351
  230SOL     OW  699   1.008   1.456   2.339
  230SOL    HW1  700   0.962   1.528   2.287
  230SOL    HW2  701   1.004   1.476   2.437
  231SOL     OW  702   0.351   1.801   2.715
  231SOL    HW1  703   0.401   1.715   2.721
  231SOL    HW2  704   0.416   1.878   2.712
  232SOL     OW  705   1.795   1.066   2.735
  232SOL    HW1  706   1.733   1.051   2.659
  232SOL    HW2  707   1.743   1.077   2.820
  233SOL     OW  708   0.321   0.943   2.104
  233SOL    HW1  709   0.403   0.982   2.062
  233SOL    HW2  710   0.294   0.861   2.055
  234SOL     OW  711   1.111   1.776   2.099
  234SOL    HW1  712   1.051   1.714   2.149
  234SOL    HW2  713   1.142   1.732   2.014
  235SOL     OW  714   1.632   1.377   1.943
  235SOL    HW1  715   1.600   1.471   1.933
  235SOL    HW2  716   1.556   1.314   1.931
  236SOL     OW  717   0.464   1.743   2.185
  236SOL    HW1  718   0.497   1.782   2.271
  236SOL    HW2  719   0.540   1.736   2.120
  237SOL     OW  720   1.400   0.107   2.288
  237SOL    HW1  721   1.376   0.070   2.198
  237SOL    HW2  722   1.499   0.123   2.292
  238SOL     OW  723   0.382   0.700   2.342
  238SOL    HW1  724   0.427   0.610   2.339
  238SOL    HW2  725   0.288   0.689   2.375
  239SOL     OW  726   0.614   0.122   1.979
  239SOL    HW1  727   0.712   0.100   1.986
  239SOL    HW2  728   0.583   0.105   1.886
  240SOL     OW  729   0.539   0.064   2.374
  240SOL    HW1  730   0.458   0.065   2.432
  240SOL    HW2  731   0.542   0.147   2.319
  241SOL     OW  732   1.434   1.188   1.903
  241SOL    HW1  733   1.466   1.112   1.960
  241SOL    HW2  734   1.342   1.215   1.933
  242SOL     OW  735   0.297   0.035   2.033
  242SOL    HW1  736   0.346   0.119   2.012
  242SOL    HW2  737   0.359  -0.030   2.078
  243SOL     OW  738   0.935   0.236   2.342
  243SOL    HW1  739   0.887   0.277   2.264
  243SOL    HW2  740   1.034   0.234   2.323
  244SOL     OW  741   0.459   1.152   2.603
  244SOL    HW1  742   0.388   1.125   2.668
  244SOL    HW2  743   0.433   1.124   2.510
  245SOL     OW  744   1.271   1.797   2.453
  245SOL    HW1  745   1.315   1.861   2.389
  245SOL    HW2  746   1.221   1.849   2.523
  246SOL     OW  747   1.032   0.549   1.878
  246SOL    HW1  748   0.991   0.631   1.839
  246SOL    HW2  749   1.096   0.575   1.951
  247SOL     OW  750   0.866   0.454   2.504
  247SOL    HW1  751   0.834   0.526   2.442
  247SOL    HW2  752   0.890   0.373   2.451
  248SOL     OW  753   1.857   0.833   2.239
  248SOL    HW1  754   1.899   0.769   2.303
  248SOL    HW2  755   1.819   0.782   2.161
  249SOL     OW  756   0.488   1.385   2.036
  249SOL    HW1  757   0.401   1.370   2.083
  249SOL    HW2  758   0.471   1.411   1.941
  250SOL     OW  759   1.390   0.575   1.940
  250SOL    HW1  760   1.336   0.554   2.021
  250SOL    HW2  761   1.481   0.534   1.949
  251SOL     OW  762   0.527   0.256   2.190
  251SOL    HW1  763   0.554   0.197   2.115
  251SOL    HW2  764   0.527   0.351   2.159
  252SOL     OW  765   0.705   1.050   2.230
  252SOL    HW1  766   0.691   1.057   2.329
  252SOL    HW2  767   0.789   0.999   2.212
  253SOL     OW  768   0.367   1.100   2.363
  253SOL    HW1  769   0.360   1.183   2.307
  253SOL    HW2  770   0.371   1.020   2.303
  254SOL     OW  771   1.252   1.348   2.250
  254SOL    HW1  772   1.302   1.425   2.290
  254SOL    HW2  773   1.157   1.350   2.282
  255SOL     OW  774   1.582   0.639   2.334
  255SOL    HW1  775   1.551   0.700   2.407
  255SOL    HW2  776   1.632   0.691   2.265
  256SOL     OW  777   1.209   0.525   2.137
  256SOL    HW1  778   1.222   0.441   2.191
  256SOL    HW2  779   1.180   0.599   2.197
  257SOL     OW  780   0.307   0.063   2.480
  257SOL    HW1  781   0.296   0.157   2.513
  257SOL    HW2  782   0.302   0.000   2.557
  258SOL     OW  783   1.622   0.367   2.236
  258SOL    HW1  784   1.624   0.291   2.300
  258SOL    HW2  785   1.574   0.444   2.276
  259SOL     OW  786   1.540   0.274   1.987
  259SOL    HW1  787   1.479   0.199   2.010
  259SOL    HW2  788   1.562   0.326   2.070
  260SOL     OW  789   1.303   0.838   1.904
  260SOL    HW1  790   1.337   0.745   1.919
  260SOL    HW2  791   1.321   0.865   1.809
  261SOL     OW  792   0.008   1.326   2.062
  261SOL    HW1  793  -0.085   1.347   2.031
  261SOL    HW2  794   0.018   1.227   2.075
  262SOL     OW  795   0.815   0.572   2.187
  262SOL    HW1  796   0.822   0.483   2.141
  262SOL    HW2  797   0.721   0.606   2.179
  263SOL     OW  798   0.473   0.500   2.053
  263SOL    HW1  799   0.534   0.580   2.057
  263SOL    HW2  800   0.378   0.531   2.060
  264SOL     OW  801   1.302   0.855   2.171
  264SOL    HW1  802   1.216   0.824   2.213
  264SOL    HW2  803   1.298   0.841   2.072
  265SOL     OW  804   1.726   0.135   2.385
  265SOL    HW1  805   1.799   0.118   2.318
  265SOL    HW2  806   1.695   0.048   2.423
  266SOL     OW  807   1.388   1.573   2.339
  266SOL    HW1  808   1.455   1.585   2.265
  266SOL    HW2  809   1.348   1.662   2.362
  267SOL     OW  810   0.672   1.616   2.016
  267SOL    HW1  811   0.681   1.626   1.917
  267SOL    HW2  812   0.632   1.527   2.037
  268SOL     OW  813   1.841   0.175   2.825
  268SOL    HW1  814   1.880   0.090   2.789
  268SOL    HW2  815   1.743   0.177   2.806
  269SOL     OW  816   1.194   1.612   1.893
  269SOL    HW1  817   1.200   1.519   1.930
  269SOL    HW2  818   1.135   1.612   1.813
  270SOL     OW  819   0.916   0.910   2.153
  270SOL    HW1  820   0.979   0.948   2.085
  270SOL    HW2  821   0.956   0.827   2.192
  271SOL     OW  822   1.504   1.607   1.906
  271SOL    HW1  823   1.412   1.644   1.913
  271SOL    HW2  824   1.542   1.627   1.816
  272SOL     OW  825   0.590   1.487   2.353
  272SOL    HW1  826   0.632   1.429   2.283
  272SOL    HW2  827   0.546   1.566   2.309
  273SOL     OW  828   0.255   1.348   2.152
  273SOL    HW1  829   0.159   1.349   2.125
  273SOL    HW2  830   0.267   1.401   2.236
  274SOL     OW  831   0.075   0.345   1.895
  274SOL    HW1  832  -0.017   0.317   1.866
  274SOL    HW2  833   0.106   0.422   1.839
  275SOL     OW  834   0.072   0.166   2.180
  275SOL    HW1  835   0.055   0.249   2.126
  275SOL    HW2  836   0.162   0.129   2.158
  276SOL     OW  837   1.183   1.335   1.981
  276SOL    HW1  838   1.084   1.324   1.983
  276SOL    HW2  839   1.217   1.350   2.074
  277SOL     OW  840   1.225   0.325   2.311
  277SOL    HW1  841   1.290   0.251   2.300
  277SOL    HW2  842   1.245   0.375   2.395
  278SOL     OW  843   0.594   0.745   2.514
  278SOL    HW1  844   0.644   0.830   2.495
  278SOL    HW2  845   0.506   0.747   2.466
  279SOL     OW  846   0.859   1.374   1.878
  279SOL    HW1  847   0.813   1.389   1.966
  279SOL    HW2  848   0.903   1.459   1.848
  280SOL     OW  849   1.083   0.984   1.949
  280SOL    HW1  850   1.060   1.037   1.867
  280SOL    HW2  851   1.164   0.928   1.930
  281SOL     OW  852   0.079   1.240   2.515
  281SOL    HW1  853   0.078   1.193   2.603
  281SOL    HW2  854   0.161   1.212   2.464
  282SOL     OW  855   0.428   0.424   2.382
  282SOL    HW1  856   0.458   0.352   2.320
  282SOL    HW2  857   0.389   0.384   2.465
  283SOL     OW  858   0.812   1.586   2.549
  283SOL    HW1  859   0.844   1.596   2.455
  283SOL    HW2  860   0.733   1.524   2.551
  284SOL     OW  861   0.770   1.330   2.163
  284SOL    HW1  862   0.724   1.243   2.180
  284SOL    HW2  863   0.861   1.327   2.204
  285SOL     OW  864   1.352   0.052   2.030
  285SOL    HW1  865   1.387   0.011   1.946
  285SOL    HW2  866   1.262   0.014   2.050
  286SOL     OW  867   1.300   0.453   2.553
  286SOL    HW1  868   1.241   0.533   2.557
  286SOL    HW2  869   1.315   0.418   2.646
  287SOL     OW  870   0.039   1.077   2.162
  287SOL    HW1  871   0.138   1.066   2.153
  287SOL    HW2  872  -0.001   0.991   2.194
  288SOL     OW  873   0.875   1.646   2.199
  288SOL    HW1  874   0.798   1.611   2.145
  288SOL    HW2  875   0.843   1.717   2.261
  289SOL     OW  876   0.225   2.137   0.996
  289SOL    HW1  877   0.260   2.120   1.088
  289SOL    HW2  878   0.137   2.092   0.984
  290SOL     OW  879   0.019   2.230   0.647
  290SOL    HW1  880  -0.063   2.273   0.686
  290SOL    HW2  881  -0.009   2.157   0.584
  291SOL     OW  882   1.755   2.469   0.231
  291SOL    HW1  883   1.743   2.456   0.132
  291SOL    HW2  884   1.725   2.388   0.280
  292SOL     OW  885   0.438   2.254   1.499
  292SOL    HW1  886   0.520   2.198   1.508
  292SOL    HW2  887   0.357   2.196   1.503
  293SOL     OW  888   1.603   2.309   0.737
  293SOL    HW1  889   1.529   2.355   0.687
  293SOL    HW2  890   1.654   2.377   0.790
  294SOL     OW  891   1.594   1.976   1.480
  294SOL    HW1  892   1.576   2.043   1.408
  294SOL    HW2  893   1.591   2.022   1.569
  295SOL     OW  894   0.122   2.505   0.563
  295SOL    HW1  895   0.077   2.417   0.580
  295SOL    HW2  896   0.121   2.559   0.647
  296SOL     OW  897   0.113   2.599   1.597
  296SOL    HW1  898   0.201   2.586   1.642
  296SOL    HW2  899   0.100   2.696   1.575
  297SOL     OW  900   0.809   1.866   0.502
  297SOL    HW1  901   0.849   1.957   0.493
  297SOL    HW2  902   0.709   1.874   0.508
  298SOL     OW  903   0.317   2.113   1.801
  298SOL    HW1  904   0.388   2.184   1.807
  298SOL    HW2  905   0.229   2.152   1.829
  299SOL     OW  906   1.281   2.207   0.944
  299SOL    HW1  907   1.195   2.157   0.931
  299SOL    HW2  908   1.343   2.153   1.000
  300SOL     OW  909   0.807   2.467   1.465
  300SOL    HW1  910   0.760   2.464   1.554
  300SOL    HW2  911   0.756   2.412   1.399
  301SOL     OW  912   1.394   2.331   1.674
  301SOL    HW1  913   1.374   2.374   1.762
  301SOL    HW2  914   1.472   2.269   1.683
  302SOL     OW  915   0.991   2.272   1.242
  302SOL    HW1  916   0.914   2.306   1.296
  302SOL    HW2  917   0.957   2.221   1.163
  303SOL     OW  918   1.041   2.563   0.429
  303SOL    HW1  919   1.067   2.559   0.525
  303SOL    HW2  920   0.956   2.512   0.415
  304SOL     OW  921   0.076   2.673   0.789
  304SOL    HW1  922   0.175   2.661   0.798
  304SOL    HW2  923   0.052   2.768   0.810
  305SOL     OW  924   0.865   2.210   0.195
  305SOL    HW1  925   0.924   2.273   0.146
  305SOL    HW2  926   0.884   2.116   0.166
  306SOL     OW  927   1.719   2.447   1.831
  306SOL    HW1  928   1.693   2.536   1.795
  306SOL    HW2  929   1.717   2.379   1.758
  307SOL     OW  930   0.550   2.058   0.885
  307SOL    HW1  931   0.545   2.053   0.985
  307SOL    HW2  932   0.552   2.154   0.856
  308SOL     OW  933   1.458   2.597   0.728
  308SOL    HW1  934   1.453   2.532   0.803
  308SOL    HW2  935   1.538   2.656   0.741
  309SOL     OW  936   0.202   2.147   1.498
  309SOL    HW1  937   0.122   2.207   1.485
  309SOL    HW2  938   0.192   2.098   1.584
  310SOL     OW  939   1.400   1.969   0.426
  310SOL    HW1  940   1.376   1.932   0.336
  310SOL    HW2  941   1.499   1.985   0.430
  311SOL     OW  942   1.547   2.084   1.729
  311SOL    HW1  943   1.542   2.121   1.821
  311SOL    HW2  944   1.475   2.015   1.717
  312SOL     OW  945   0.614   1.984   0.117
  312SOL    HW1  946   0.712   1.962   0.124
  312SOL    HW2  947   0.583   1.967   0.024
  313SOL     OW  948   0.781   2.126   1.749
  313SOL    HW1  949   0.848   2.065   1.792
  313SOL    HW2  950   0.708   2.145   1.814
  314SOL     OW  951   1.351   2.452   1.433
  314SOL    HW1  952   1.379   2.409   1.518
  314SOL    HW2  953   1.376   2.548   1.434
  315SOL     OW  954   0.922   2.365   0.899
  315SOL    HW1  955   0.897   2.356   0.803
  315SOL    HW2  956   0.970   2.283   0.930
  316SOL     OW  957   0.539   1.926   0.512
  316SOL    HW1  958   0.458   1.927   0.570
  316SOL    HW2  959   0.542   2.009   0.457
  317SOL     OW  960   0.935   2.098   0.480
  317SOL    HW1  961   0.887   2.139   0.402
  317SOL    HW2  962   1.034   2.096   0.461
  318SOL     OW  963   1.076   2.545   1.464
  318SOL    HW1  964   0.996   2.484   1.467
  318SOL    HW2  965   1.157   2.492   1.440
  319SOL     OW  966   1.032   2.411   0.016
  319SOL    HW1  967   0.991   2.493  -0.023
  319SOL    HW2  968   1.096   2.437   0.089
  320SOL     OW  969   0.078   2.418   1.386
  320SOL    HW1  970   0.170   2.417   1.345
  320SOL    HW2  971   0.072   2.492   1.453
  321SOL     OW  972   0.561   2.084   1.147
  321SOL    HW1  973   0.599   2.000   1.184
  321SOL    HW2  974   0.473   2.103   1.191
  322SOL     OW  975   0.866   2.316   0.642
  322SOL    HW1  976   0.834   2.388   0.580
  322SOL    HW2  977   0.890   2.235   0.589
  323SOL     OW  978   1.017   1.901   0.753
  323SOL    HW1  979   0.945   1.906   0.684
  323SOL    HW2  980   0.993   1.832   0.822
  324SOL     OW  981   1.466   2.452   0.992
  324SOL    HW1  982   1.436   2.357   0.999
  324SOL    HW2  983   1.539   2.468   1.058
  325SOL     OW  984   1.390   2.437   0.078
  325SOL    HW1  985   1.336   2.416   0.159
  325SOL    HW2  986   1.481   2.396   0.087
  326SOL     OW  987   0.527   2.118   0.328
  326SOL    HW1  988   0.554   2.059   0.253
  326SOL    HW2  989   0.527   2.213   0.297
  327SOL     OW  990   0.915   1.951   1.402
  327SOL    HW1  991   0.940   1.931   1.307
  327SOL    HW2  992   0.987   2.007   1.444
  328SOL     OW  993   1.274   2.248   1.262
  328SOL    HW1  994   1.295   2.322   1.326
  328SOL    HW2  995   1.185   2.265   1.219
  329SOL     OW  996   0.566   2.399   0.865
  329SOL    HW1  997   0.578   2.465   0.791
  329SOL    HW2  998   0.612   2.433   0.948
  330SOL     OW  999   1.582   2.501   0.472
  330SOL    HW1 1000   1.551   2.562   0.545
  330SOL    HW2 1001   1.632   2.553   0.403
  331SOL     OW 1002   1.013   1.967   1.770
  331SOL    HW1 1003   1.019   2.052   1.718
  331SOL    HW2 1004   1.045   1.891   1.713
  332SOL     OW 1005   0.504   1.912   1.740
  332SOL    HW1 1006   0.462   1.855   1.670
  332SOL    HW2 1007   0.438   1.981   1.772
  333SOL     OW 1008   1.209   2.387   0.275
  333SOL    HW1 1009   1.222   2.303   0.329
  333SOL    HW2 1010   1.180   2.461   0.335
  334SOL     OW 1011   0.307   2.075   1.231
  334SOL    HW1 1012   0.284   2.112   1.321
  334SOL    HW2 1013   0.277   1.980   1.225
  335SOL     OW 1014   0.732   2.496   1.064
  335SOL    HW1 1015   0.791   2.470   0.988
  335SOL    HW2 1016   0.704   2.592   1.053
  336SOL     OW 1017   0.307   1.925   0.618
  336SOL    HW1 1018   0.296   2.019   0.651
  336SOL    HW2 1019   0.302   1.862   0.695
  337SOL     OW 1020   1.622   2.229   0.374
  337SOL    HW1 1021   1.624   2.153   0.438
  337SOL    HW2 1022   1.574   2.306   0.414
  338SOL     OW 1023   1.540   2.136   0.125
  338SOL    HW1 1024   1.479   2.061   0.148
  338SOL    HW2 1025   1.562   2.188   0.208
  339SOL     OW 1026   0.319   2.672   0.949
  339SOL    HW1 1027   0.412   2.708   0.954
  339SOL    HW2 1028   0.313   2.587   1.001
  340SOL     OW 1029   0.339   2.371   1.006
  340SOL    HW1 1030   0.287   2.288   0.989
  340SOL    HW2 1031   0.416   2.376   0.942
  341SOL     OW 1032   1.138   2.242   1.678
  341SOL    HW1 1033   1.093   2.305   1.742
  341SOL    HW2 1034   1.231   2.273   1.661
  342SOL     OW 1035   1.160   2.069   1.477
  342SOL    HW1 1036   1.160   2.133   1.554
  342SOL    HW2 1037   1.188   2.117   1.394
  343SOL     OW 1038   0.040   2.406   1.114
  343SOL    HW1 1039   0.125   2.373   1.073
  343SOL    HW2 1040   0.053   2.421   1.212
  344SOL     OW 1041   0.189   2.382   1.722
  344SOL    HW1 1042   0.248   2.342   1.652
  344SOL    HW2 1043   0.131   2.453   1.681
  345SOL     OW 1044   0.815   2.434   0.325
  345SOL    HW1 1045   0.822   2.345   0.279
  345SOL    HW2 1046   0.721   2.468   0.317
  346SOL     OW 1047   1.657   2.466   1.206
  346SOL    HW1 1048   1.619   2.397   1.268
  346SOL    HW2 1049   1.739   2.430   1.162
  347SOL     OW 1050   0.671   2.326   1.269
  347SOL    HW1 1051   0.637   2.237   1.239
  347SOL    HW2 1052   0.697   2.380   1.189
  348SOL     OW 1053   0.473   2.362   0.191
  348SOL    HW1 1054   0.534   2.442   0.195
  348SOL    HW2 1055   0.378   2.393   0.198
  349SOL     OW 1056   0.903   1.948   0.133
  349SOL    HW1 1057   0.954   1.949   0.047
  349SOL    HW2 1058   0.959   1.906   0.204
  350SOL     OW 1059   1.726   1.997   0.523
  350SOL    HW1 1060   1.799   1.980   0.456
  350SOL    HW2 1061   1.695   1.910   0.561
  351SOL     OW 1062   1.280   2.789   0.672
  351SOL    HW1 1063   1.340   2.708   0.674
  351SOL    HW2 1064   1.320   2.858   0.612
  352SOL     OW 1065   1.841   2.037   0.963
  352SOL    HW1 1066   1.880   1.952   0.927
  352SOL    HW2 1067   1.743   2.039   0.944
  353SOL     OW 1068   0.263   2.188   0.720
  353SOL    HW1 1069   0.184   2.239   0.686
  353SOL    HW2 1070   0.254   2.173   0.818
  354SOL     OW 1071   1.014   2.098   0.971
  354SOL    HW1 1072   1.006   2.062   0.878
  354SOL    HW2 1073   1.012   2.022   1.036
  355SOL     OW 1074   1.709   2.247   1.381
  355SOL    HW1 1075   1.782   2.316   1.385
  355SOL    HW2 1076   1.737   2.172   1.322
  356SOL     OW 1077   0.672   2.065   1.489
  356SOL    HW1 1078   0.762   2.049   1.449
  356SOL    HW2 1079   0.680   2.070   1.588
  357SOL     OW 1080   0.075   2.207   0.033
  357SOL    HW1 1081  -0.017   2.179   0.004
  357SOL    HW2 1082   0.106   2.284  -0.023
  358SOL     OW 1083   0.072   2.028   0.318
  358SOL    HW1 1084   0.055   2.111   0.264
  358SOL    HW2 1085   0.162   1.991   0.296
  359SOL     OW 1086   0.716   2.427   1.708
  359SOL    HW1 1087   0.735   2.492   1.782
  359SOL    HW2 1088   0.776   2.347   1.717
  360SOL     OW 1089   1.225   2.187   0.449
  360SOL    HW1 1090   1.290   2.113   0.438
  360SOL    HW2 1091   1.245   2.237   0.533
  361SOL     OW 1092   1.777   2.204   1.642
  361SOL    HW1 1093   1.760   2.235   1.548
  361SOL    HW2 1094   1.693   2.167   1.680
  362SOL     OW 1095   1.083   2.846   0.087
  362SOL    HW1 1096   1.060   2.899   0.005
  362SOL    HW2 1097   1.164   2.790   0.068
  363SOL     OW 1098   1.824   2.054   1.227
  363SOL    HW1 1099   1.820   1.964   1.271
  363SOL    HW2 1100   1.827   2.043   1.128
  364SOL     OW 1101   0.428   2.286   0.520
  364SOL    HW1 1102   0.458   2.214   0.458
  364SOL    HW2 1103   0.389   2.246   0.603
  365SOL     OW 1104   0.317   2.409   1.280
  365SOL    HW1 1105   0.355   2.350   1.352
  365SOL    HW2 1106   0.357   2.383   1.192
  366SOL     OW 1107   1.424   2.076   1.112
  366SOL    HW1 1108   1.476   2.011   1.167
  366SOL    HW2 1109   1.375   2.139   1.173
  367SOL     OW 1110   1.001   1.896   1.154
  367SOL    HW1 1111   0.938   1.824   1.123
  367SOL    HW2 1112   1.094   1.860   1.154
  368SOL     OW 1113   1.352   1.914   0.168
  368SOL    HW1 1114   1.387   1.873   0.084
  368SOL    HW2 1115   1.262   1.876   0.188
  369SOL     OW 1116   1.300   2.315   0.691
  369SOL    HW1 1117   1.241   2.395   0.695
  369SOL    HW2 1118   1.315   2.280   0.784
  370SOL     OW 1119   1.593   2.083   0.882
  370SOL    HW1 1120   1.509   2.082   0.936
  370SOL    HW2 1121   1.595   2.166   0.826
  371SOL     OW 1122   1.135   2.565   2.579
  371SOL    HW1 1123   1.192   2.643   2.554
  371SOL    HW2 1124   1.075   2.591   2.655
  372SOL     OW 1125   1.755   2.469   2.093
  372SOL    HW1 1126   1.743   2.456   1.994
  372SOL    HW2 1127   1.725   2.388   2.142
  373SOL     OW 1128   1.603   2.309   2.599
  373SOL    HW1 1129   1.529   2.355   2.549
  373SOL    HW2 1130   1.654   2.377   2.652
  374SOL     OW 1131   0.122   2.505   2.425
  374SOL    HW1 1132   0.077   2.417   2.442
  374SOL    HW2 1133   0.121   2.559   2.509
  375SOL     OW 1134   0.809   1.866   2.364
  375SOL    HW1 1135   0.849   1.957   2.355
  375SOL    HW2 1136   0.709   1.874   2.370
  376SOL     OW 1137   1.281   2.207   2.806
  376SOL    HW1 1138   1.195   2.157   2.793
  376SOL    HW2 1139   1.343   2.153   2.862
  377SOL     OW 1140   1.041   2.563   2.291
  377SOL    HW1 1141   1.067   2.559   2.387
  377SOL    HW2 1142   0.956   2.512   2.277
  378SOL     OW 1143   0.076   2.673   2.651
  378SOL    HW1 1144   0.175   2.661   2.660
  378SOL    HW2 1145   0.052   2.768   2.672
  379SOL     OW 1146   0.865   2.210   2.057
  379SOL    HW1 1147   0.924   2.273   2.008
  379SOL    HW2 1148   0.884   2.116   2.028
  380SOL     OW 1149   1.400   1.969   2.288
  380SOL    HW1 1150   1.376   1.932   2.198
  380SOL    HW2 1151   1.499   1.985   2.292
  381SOL     OW 1152   0.614   1.984   1.979
  381SOL    HW1 1153   0.712   1.962   1.986
  381SOL    HW2 1154   0.583   1.967   1.886
  382SOL     OW 1155   0.539   1.926   2.374
  382SOL    HW1 1156   0.458   1.927   2.432
  382SOL    HW2 1157   0.542   2.009   2.319
  383SOL     OW 1158   0.297   1.897   2.033
  383SOL    HW1 1159   0.346   1.981   2.012
  383SOL    HW2 1160   0.359   1.832   2.078
  384SOL     OW 1161   0.935   2.098   2.342
  384SOL    HW1 1162   0.887   2.139   2.264
  384SOL    HW2 1163   1.034   2.096   2.323
  385SOL     OW 1164   1.032   2.411   1.878
  385SOL    HW1 1165   0.991   2.493   1.839
  385SOL    HW2 1166   1.096   2.437   1.951
  386SOL     OW 1167   0.866   2.316   2.504
  386SOL    HW1 1168   0.834   2.388   2.442
  386SOL    HW2 1169   0.890   2.235   2.451
  387SOL     OW 1170   1.390   2.437   1.940
  387SOL    HW1 1171   1.336   2.416   2.021
  387SOL    HW2 1172   1.481   2.396   1.949
  388SOL     OW 1173   0.527   2.118   2.190
  388SOL    HW1 1174   0.554   2.059   2.115
  388SOL    HW2 1175   0.527   2.213   2.159
  389SOL     OW 1176   1.582   2.501   2.334
  389SOL    HW1 1177   1.551   2.562   2.407
  389SOL    HW2 1178   1.632   2.553   2.265
  390SOL     OW 1179   1.209   2.387   2.137
  390SOL    HW1 1180   1.222   2.303   2.191
  390SOL    HW2 1181   1.180   2.461   2.197
  391SOL     OW 1182   0.307   1.925   2.480
  391SOL    HW1 1183   0.296   2.019   2.513
  391SOL    HW2 1184   0.302   1.862   2.557
  392SOL     OW 1185   1.622   2.229   2.236
  392SOL    HW1 1186   1.624   2.153   2.300
  392SOL    HW2 1187   1.574   2.306   2.276
  393SOL     OW 1188   1.540   2.136   1.987
  393SOL    HW1 1189   1.479   2.061   2.010
  393SOL    HW2 1190   1.562   2.188   2.070
  394SOL     OW 1191   0.815   2.434   2.187
  394SOL    HW1 1192   0.822   2.345   2.141
  394SOL    HW2 1193   0.721   2.468   2.179
  395SOL     OW 1194   0.473   2.362   2.053
  395SOL    HW1 1195   0.534   2.442   2.057
  395SOL    HW2 1196   0.378   2.393   2.060
  396SOL     OW 1197   1.726   1.997   2.385
  396SOL    HW1 1198   1.799   1.980   2.318
  396SOL    HW2 1199   1.695   1.910   2.423
  397SOL     OW 1200   1.280   2.789   2.534
  397SOL    HW1 1201   1.340   2.708   2.536
  397SOL    HW2 1202   1.320   2.858   2.474
  398SOL     OW 1203   1.841   2.037   2.825
  398SOL    HW1 1204   1.880   1.952   2.789
  398SOL    HW2 1205   1.743   2.039   2.806
  399SOL     OW 1206   0.075   2.207   1.895
  399SOL    HW1 1207  -0.017   2.179   1.866
  399SOL    HW2 1208   0.106   2.284   1.839
  400SOL     OW 1209   0.072   2.028   2.180
  400SOL    HW1 1210   0.055   2.111   2.126
  400SOL    HW2 1211   0.162   1.991   2.158
  401SOL     OW 1212   1.225   2.187   2.311
  401SOL    HW1 1213   1.290   2.113   2.300
  401SOL    HW2 1214   1.245   2.237   2.395
  402SOL     OW 1215   1.083   2.846   1.949
  402SOL    HW1 1216   1.060   2.899   1.867
  402SOL    HW2 1217   1.164   2.790   1.930
  403SOL     OW 1218   0.428   2.286   2.382
  403SOL    HW1 1219   0.458   2.214   2.320
  403SOL    HW2 1220   0.389   2.246   2.465
  404SOL     OW 1221   1.352   1.914   2.030
  404SOL    HW1 1222   1.387   1.873   1.946
  404SOL    HW2 1223   1.262   1.876   2.050
  405SOL     OW 1224   1.300   2.315   2.553
  405SOL    HW1 1225   1.241   2.395   2.557
  405SOL    HW2 1226   1.315   2.280   2.646
  406SOL     OW 1227   2.092   0.628   0.113
  406SOL    HW1 1228   1.999   0.626   0.150
  406SOL    HW2 1229   2.093   0.589   0.021
  407SOL     OW 1230   2.087   0.275   0.996
  407SOL    HW1 1231   2.122   0.258   1.088
  407SOL    HW2 1232   1.999   0.230   0.984
  408SOL     OW 1233   1.881   0.368   0.647
  408SOL    HW1 1234   1.799   0.411   0.686
  408SOL    HW2 1235   1.853   0.295   0.584
  409SOL     OW 1236   2.431   1.275   1.165
  409SOL    HW1 1237   2.338   1.268   1.128
  409SOL    HW2 1238   2.442   1.364   1.209
  410SOL     OW 1239   2.712   0.798   1.823
  410SOL    HW1 1240   2.708   0.874   1.888
  410SOL    HW2 1241   2.734   0.834   1.732
  411SOL     OW 1242   2.548   1.161   1.803
  411SOL    HW1 1243   2.608   1.240   1.817
  411SOL    HW2 1244   2.462   1.192   1.762
  412SOL     OW 1245   2.197   1.435   1.061
  412SOL    HW1 1246   2.119   1.404   1.008
  412SOL    HW2 1247   2.255   1.493   1.004
  413SOL     OW 1248   2.300   0.392   1.499
  413SOL    HW1 1249   2.382   0.336   1.508
  413SOL    HW2 1250   2.219   0.334   1.503
  414SOL     OW 1251   2.093   1.713   0.483
  414SOL    HW1 1252   2.127   1.790   0.537
  414SOL    HW2 1253   2.137   1.713   0.393
  415SOL     OW 1254   2.092   1.434   0.538
  415SOL    HW1 1255   2.066   1.530   0.538
  415SOL    HW2 1256   2.021   1.380   0.583
  416SOL     OW 1257   2.102   1.091   0.886
  416SOL    HW1 1258   2.116   1.007   0.938
  416SOL    HW2 1259   2.047   1.155   0.941
  417SOL     OW 1260   2.482   1.786   1.439
  417SOL    HW1 1261   2.390   1.769   1.474
  417SOL    HW2 1262   2.510   1.878   1.465
  418SOL     OW 1263   2.468   0.964   0.123
  418SOL    HW1 1264   2.475   1.048   0.069
  418SOL    HW2 1265   2.514   0.977   0.211
  419SOL     OW 1266   1.984   0.643   0.563
  419SOL    HW1 1267   1.939   0.555   0.580
  419SOL    HW2 1268   1.983   0.697   0.647
  420SOL     OW 1269   1.889   1.596   0.117
  420SOL    HW1 1270   1.870   1.500   0.138
  420SOL    HW2 1271   1.856   1.654   0.192
  421SOL     OW 1272   1.975   0.737   1.597
  421SOL    HW1 1273   2.063   0.724   1.642
  421SOL    HW2 1274   1.962   0.834   1.575
  422SOL     OW 1275   2.475   1.365   0.726
  422SOL    HW1 1276   2.426   1.278   0.735
  422SOL    HW2 1277   2.452   1.408   0.639
  423SOL     OW 1278   2.059   0.976   1.264
  423SOL    HW1 1279   2.148   0.931   1.250
  423SOL    HW2 1280   1.986   0.911   1.245
  424SOL     OW 1281   2.179   0.251   1.801
  424SOL    HW1 1282   2.250   0.322   1.807
  424SOL    HW2 1283   2.091   0.290   1.829
  425SOL     OW 1284   2.460   0.729   0.270
  425SOL    HW1 1285   2.484   0.798   0.202
  425SOL    HW2 1286   2.382   0.762   0.324
  426SOL     OW 1287   1.938   0.811   0.789
  426SOL    HW1 1288   2.037   0.799   0.798
  426SOL    HW2 1289   1.914   0.906   0.810
  427SOL     OW 1290   1.992   1.821   1.571
  427SOL    HW1 1291   1.982   1.806   1.670
  427SOL    HW2 1292   1.906   1.857   1.535
  428SOL     OW 1293   2.412   0.196   0.885
  428SOL    HW1 1294   2.407   0.191   0.985
  428SOL    HW2 1295   2.414   0.292   0.856
  429SOL     OW 1296   2.213   1.801   0.853
  429SOL    HW1 1297   2.263   1.715   0.859
  429SOL    HW2 1298   2.278   1.878   0.850
  430SOL     OW 1299   2.183   0.943   0.242
  430SOL    HW1 1300   2.265   0.982   0.200
  430SOL    HW2 1301   2.156   0.861   0.193
  431SOL     OW 1302   2.323   1.266   1.727
  431SOL    HW1 1303   2.273   1.267   1.641
  431SOL    HW2 1304   2.260   1.248   1.803
  432SOL     OW 1305   2.064   0.285   1.498
  432SOL    HW1 1306   1.984   0.345   1.485
  432SOL    HW2 1307   2.054   0.236   1.584
  433SOL     OW 1308   2.326   1.743   0.323
  433SOL    HW1 1309   2.359   1.782   0.409
  433SOL    HW2 1310   2.402   1.736   0.258
  434SOL     OW 1311   2.111   1.785   1.241
  434SOL    HW1 1312   2.168   1.720   1.291
  434SOL    HW2 1313   2.095   1.752   1.148
  435SOL     OW 1314   2.244   0.700   0.480
  435SOL    HW1 1315   2.289   0.610   0.477
  435SOL    HW2 1316   2.150   0.689   0.513
  436SOL     OW 1317   2.665   1.402   0.924
  436SOL    HW1 1318   2.755   1.416   0.882
  436SOL    HW2 1319   2.594   1.404   0.853
  437SOL     OW 1320   2.401   0.064   0.512
  437SOL    HW1 1321   2.320   0.065   0.570
  437SOL    HW2 1322   2.404   0.147   0.457
  438SOL     OW 1323   2.159   0.035   0.171
  438SOL    HW1 1324   2.208   0.119   0.150
  438SOL    HW2 1325   2.221  -0.030   0.216
  439SOL     OW 1326   2.797   0.236   0.480
  439SOL    HW1 1327   2.749   0.277   0.402
  439SOL    HW2 1328   2.896   0.234   0.461
  440SOL     OW 1329   2.321   1.152   0.741
  440SOL    HW1 1330   2.250   1.125   0.806
  440SOL    HW2 1331   2.295   1.124   0.648
  441SOL     OW 1332   1.940   0.556   1.386
  441SOL    HW1 1333   2.032   0.555   1.345
  441SOL    HW2 1334   1.934   0.630   1.453
  442SOL     OW 1335   2.423   0.222   1.147
  442SOL    HW1 1336   2.461   0.138   1.184
  442SOL    HW2 1337   2.335   0.241   1.191
  443SOL     OW 1338   2.350   1.385   0.174
  443SOL    HW1 1339   2.263   1.370   0.221
  443SOL    HW2 1340   2.333   1.411   0.079
  444SOL     OW 1341   2.389   0.256   0.328
  444SOL    HW1 1342   2.416   0.197   0.253
  444SOL    HW2 1343   2.389   0.351   0.297
  445SOL     OW 1344   2.272   0.813   1.251
  445SOL    HW1 1345   2.358   0.825   1.301
  445SOL    HW2 1346   2.230   0.726   1.278
  446SOL     OW 1347   1.926   1.564   1.331
  446SOL    HW1 1348   1.880   1.646   1.297
  446SOL    HW2 1349   2.024   1.583   1.340
  447SOL     OW 1350   2.229   1.100   0.501
  447SOL    HW1 1351   2.222   1.183   0.445
  447SOL    HW2 1352   2.233   1.020   0.441
  448SOL     OW 1353   2.428   0.537   0.865
  448SOL    HW1 1354   2.440   0.603   0.791
  448SOL    HW2 1355   2.474   0.571   0.948
  449SOL     OW 1356   2.216   1.510   1.329
  449SOL    HW1 1357   2.195   1.466   1.242
  449SOL    HW2 1358   2.313   1.536   1.332
  450SOL     OW 1359   2.264   0.751   1.598
  450SOL    HW1 1360   2.332   0.806   1.551
  450SOL    HW2 1361   2.304   0.663   1.625
  451SOL     OW 1362   2.366   0.050   1.740
  451SOL    HW1 1363   2.324  -0.007   1.670
  451SOL    HW2 1364   2.300   0.119   1.772
  452SOL     OW 1365   2.435   0.870   1.029
  452SOL    HW1 1366   2.479   0.959   1.020
  452SOL    HW2 1367   2.372   0.870   1.106
  453SOL     OW 1368   2.169   0.213   1.231
  453SOL    HW1 1369   2.146   0.250   1.321
  453SOL    HW2 1370   2.139   0.118   1.225
  454SOL     OW 1371   1.899   1.310   1.282
  454SOL    HW1 1372   1.952   1.261   1.350
  454SOL    HW2 1373   1.921   1.408   1.287
  455SOL     OW 1374   2.169   0.063   0.618
  455SOL    HW1 1375   2.158   0.157   0.651
  455SOL    HW2 1376   2.164   0.000   0.695
  456SOL     OW 1377   2.212   0.898   1.804
  456SOL    HW1 1378   2.288   0.942   1.852
  456SOL    HW2 1379   2.247   0.851   1.722
  457SOL     OW 1380   2.181   0.810   0.949
  457SOL    HW1 1381   2.274   0.846   0.954
  457SOL    HW2 1382   2.175   0.725   1.001
  458SOL     OW 1383   2.201   0.509   1.006
  458SOL    HW1 1384   2.149   0.426   0.989
  458SOL    HW2 1385   2.278   0.514   0.942
  459SOL     OW 1386   1.870   1.326   0.200
  459SOL    HW1 1387   1.777   1.347   0.169
  459SOL    HW2 1388   1.880   1.227   0.213
  460SOL     OW 1389   1.950   1.801   0.927
  460SOL    HW1 1390   1.908   1.715   0.900
  460SOL    HW2 1391   2.044   1.804   0.893
  461SOL     OW 1392   2.366   1.568   0.910
  461SOL    HW1 1393   2.432   1.642   0.919
  461SOL    HW2 1394   2.410   1.489   0.868
  462SOL     OW 1395   1.902   0.544   1.114
  462SOL    HW1 1396   1.987   0.511   1.073
  462SOL    HW2 1397   1.915   0.559   1.212
  463SOL     OW 1398   2.051   0.520   1.722
  463SOL    HW1 1399   2.110   0.480   1.652
  463SOL    HW2 1400   1.993   0.591   1.681
  464SOL     OW 1401   2.677   0.572   0.325
  464SOL    HW1 1402   2.684   0.483   0.279
  464SOL    HW2 1403   2.583   0.606   0.317
  465SOL     OW 1404   2.114   1.564   1.744
  465SOL    HW1 1405   2.084   1.621   1.820
  465SOL    HW2 1406   2.107   1.467   1.770
  466SOL     OW 1407   2.335   0.500   0.191
  466SOL    HW1 1408   2.396   0.580   0.195
  466SOL    HW2 1409   2.240   0.531   0.198
  467SOL     OW 1410   2.021   1.137   1.466
  467SOL    HW1 1411   2.043   1.076   1.542
  467SOL    HW2 1412   2.031   1.088   1.380
  468SOL     OW 1413   1.945   1.258   1.022
  468SOL    HW1 1414   1.940   1.257   1.122
  468SOL    HW2 1415   1.862   1.217   0.984
  469SOL     OW 1416   2.550   1.662   1.716
  469SOL    HW1 1417   2.494   1.743   1.725
  469SOL    HW2 1418   2.602   1.666   1.630
  470SOL     OW 1419   1.992   1.794   1.851
  470SOL    HW1 1420   1.951   1.720   1.904
  470SOL    HW2 1421   2.056   1.845   1.909
  471SOL     OW 1422   2.125   0.326   0.720
  471SOL    HW1 1423   2.046   0.377   0.686
  471SOL    HW2 1424   2.116   0.311   0.818
  472SOL     OW 1425   2.234   1.288   1.490
  472SOL    HW1 1426   2.221   1.381   1.456
  472SOL    HW2 1427   2.150   1.236   1.477
  473SOL     OW 1428   2.452   1.487   0.491
  473SOL    HW1 1429   2.494   1.429   0.421
  473SOL    HW2 1430   2.408   1.566   0.447
  474SOL     OW 1431   2.117   1.348   0.290
  474SOL    HW1 1432   2.021   1.349   0.263
  474SOL    HW2 1433   2.129   1.401   0.374
  475SOL     OW 1434   1.967   1.013   1.726
  475SOL    HW1 1435   1.890   0.980   1.780
  475SOL    HW2 1436   2.052   0.983   1.768
  476SOL     OW 1437   2.534   0.203   1.489
  476SOL    HW1 1438   2.624   0.187   1.449
  476SOL    HW2 1439   2.542   0.208   1.588
  477SOL     OW 1440   1.937   0.345   0.033
  477SOL    HW1 1441   1.845   0.317   0.004
  477SOL    HW2 1442   1.968   0.422  -0.023
  478SOL     OW 1443   2.475   0.842   1.431
  478SOL    HW1 1444   2.531   0.923   1.414
  478SOL    HW2 1445   2.534   0.762   1.434
  479SOL     OW 1446   2.252   1.741   1.560
  479SOL    HW1 1447   2.161   1.782   1.558
  479SOL    HW2 1448   2.245   1.647   1.592
  480SOL     OW 1449   2.456   0.745   0.652
  480SOL    HW1 1450   2.506   0.830   0.633
  480SOL    HW2 1451   2.368   0.747   0.604
  481SOL     OW 1452   2.083   1.314   1.844
  481SOL    HW1 1453   2.018   1.241   1.823
  481SOL    HW2 1454   2.087   1.328   1.942
  482SOL     OW 1455   1.941   1.240   0.653
  482SOL    HW1 1456   1.940   1.193   0.741
  482SOL    HW2 1457   2.023   1.212   0.602
  483SOL     OW 1458   2.534   1.391   1.624
  483SOL    HW1 1459   2.456   1.341   1.662
  483SOL    HW2 1460   2.531   1.486   1.655
  484SOL     OW 1461   2.290   0.424   0.520
  484SOL    HW1 1462   2.320   0.352   0.458
  484SOL    HW2 1463   2.251   0.384   0.603
  485SOL     OW 1464   2.179   0.547   1.280
  485SOL    HW1 1465   2.217   0.488   1.352
  485SOL    HW2 1466   2.219   0.521   1.192
  486SOL     OW 1467   1.901   1.077   0.300
  486SOL    HW1 1468   2.000   1.066   0.291
  486SOL    HW2 1469   1.861   0.991   0.332
  487SOL     OW 1470   2.092   0.628   1.975
  487SOL    HW1 1471   1.999   0.626   2.012
  487SOL    HW2 1472   2.093   0.589   1.883
  488SOL     OW 1473   2.087   0.275   2.858
  488SOL    HW1 1474   2.122   0.258   2.950
  488SOL    HW2 1475   1.999   0.230   2.846
  489SOL     OW 1476   2.093   1.713   2.345
  489SOL    HW1 1477   2.127   1.790   2.399
  489SOL    HW2 1478   2.137   1.713   2.255
  490SOL     OW 1479   2.092   1.434   2.400
  490SOL    HW1 1480   2.066   1.530   2.400
  490SOL    HW2 1481   2.021   1.380   2.445
  491SOL     OW 1482   2.468   0.964   1.985
  491SOL    HW1 1483   2.475   1.048   1.931
  491SOL    HW2 1484   2.514   0.977   2.073
  492SOL     OW 1485   1.984   0.643   2.425
  492SOL    HW1 1486   1.939   0.555   2.442
  492SOL    HW2 1487   1.983   0.697   2.509
  493SOL     OW 1488   1.889   1.596   1.979
  493SOL    HW1 1489   1.870   1.500   2.000
  493SOL    HW2 1490   1.856   1.654   2.054
  494SOL     OW 1491   2.475   1.365   2.588
  494SOL    HW1 1492   2.426   1.278   2.597
  494SOL    HW2 1493   2.452   1.408   2.501
  495SOL     OW 1494   2.460   0.729   2.132
  495SOL    HW1 1495   2.484   0.798   2.064
  495SOL    HW2 1496   2.382   0.762   2.186
  496SOL     OW 1497   1.938   0.811   2.651
  496SOL    HW1 1498   2.037   0.799   2.660
  496SOL    HW2 1499   1.914   0.906   2.672
  497SOL     OW 1500   2.213   1.801   2.715
  497SOL    HW1 1501   2.263   1.715   2.721
  497SOL    HW2 1502   2.278   1.878   2.712
  498SOL     OW 1503   2.183   0.943   2.104
  498SOL    HW1 1504   2.265   0.982   2.062
  498SOL    HW2 1505   2.156   0.861   2.055
  499SOL     OW 1506   2.326   1.743   2.185
  499SOL    HW1 1507   2.359   1.782   2.271
  499SOL    HW2 1508   2.402   1.736   2.120
  500SOL     OW 1509   2.244   0.700   2.342
  500SOL    HW1 1510   2.289   0.610   2.339
  500SOL    HW2 1511   2.150   0.689   2.375
  501SOL     OW 1512   2.476   0.122   1.979
  501SOL    HW1 1513   2.574   0.100   1.986
  501SOL    HW2 1514   2.445   0.105   1.886
  502SOL     OW 1515   2.401   0.064   2.374
  502SOL    HW1 1516   2.320   0.065   2.432
  502SOL    HW2 1517   2.404   0.147   2.319
  503SOL     OW 1518   2.159   0.035   2.033
  503SOL    HW1 1519   2.208   0.119   2.012
  503SOL    HW2 1520   2.221  -0.030   2.078
  504SOL     OW 1521   2.797   0.236   2.342
  504SOL    HW1 1522   2.749   0.277   2.264
  504SOL    HW2 1523   2.896   0.234   2.323
  505SOL     OW 1524   2.321   1.152   2.603
  505SOL    HW1 1525   2.250   1.125   2.668
  505SOL    HW2 1526   2.295   1.124   2.510
  506SOL     OW 1527   2.350   1.385   2.036
  506SOL    HW1 1528   2.263   1.370   2.083
  506SOL    HW2 1529   2.333   1.411   1.941
  507SOL     OW 1530   2.389   0.256   2.190
  507SOL    HW1 1531   2.416   0.197   2.115
  507SOL    HW2 1532   2.389   0.351   2.159
  508SOL     OW 1533   2.229   1.100   2.363
  508SOL    HW1 1534   2.222   1.183   2.307
  508SOL    HW2 1535   2.233   1.020   2.303
  509SOL     OW 1536   2.169   0.063   2.480
  509SOL    HW1 1537   2.158   0.157   2.513
  509SOL    HW2 1538   2.164   0.000   2.557
  510SOL     OW 1539   1.870   1.326   2.062
  510SOL    HW1 1540   1.777   1.347   2.031
  510SOL    HW2 1541   1.880   1.227   2.075
  511SOL     OW 1542   2.677   0.572   2.187
  511SOL    HW1 1543   2.684   0.483   2.141
  511SOL    HW2 1544   2.583   0.606   2.179
  512SOL     OW 1545   2.335   0.500   2.053
  512SOL    HW1 1546   2.396   0.580   2.057
  512SOL    HW2 1547   2.240   0.531   2.060
  513SOL     OW 1548   2.452   1.487   2.353
  513SOL    HW1 1549   2.494   1.429   2.283
  513SOL    HW2 1550   2.408   1.566   2.309
  514SOL     OW 1551   2.117   1.348   2.152
  514SOL    HW1 1552   2.021   1.349   2.125
  514SOL    HW2 1553   2.129   1.401   2.236
  515SOL     OW 1554   1.937   0.345   1.895
  515SOL    HW1 1555   1.845   0.317   1.866
  515SOL    HW2 1556   1.968   0.422   1.839
  516SOL     OW 1557   1.934   0.166   2.180
  516SOL    HW1 1558   1.917   0.249   2.126
  516SOL    HW2 1559   2.024   0.129   2.158
  517SOL     OW 1560   2.456   0.745   2.514
  517SOL    HW1 1561   2.506   0.830   2.495
  517SOL    HW2 1562   2.368   0.747   2.466
  518SOL     OW 1563   1.941   1.240   2.515
  518SOL    HW1 1564   1.940   1.193   2.603
  518SOL    HW2 1565   2.023   1.212   2.464
  519SOL     OW 1566   2.290   0.424   2.382
  519SOL    HW1 1567   2.320   0.352   2.320
  519SOL    HW2 1568   2.251   0.384   2.465
  520SOL     OW 1569   1.901   1.077   2.162
  520SOL    HW1 1570   2.000   1.066   2.153
  520SOL    HW2 1571   1.861   0.991   2.194
  521SOL     OW 1572   2.087   2.137   0.996
  521SOL    HW1 1573   2.122   2.120   1.088
  521SOL    HW2 1574   1.999   2.092   0.984
  522SOL     OW 1575   1.881   2.230   0.647
  522SOL    HW1 1576   1.799   2.273   0.686
  522SOL    HW2 1577   1.853   2.157   0.584
  523SOL     OW 1578   2.712   2.660   1.823
  523SOL    HW1 1579   2.708   2.736   1.888
  523SOL    HW2 1580   2.734   2.696   1.732
  524SOL     OW 1581   2.300   2.254   1.499
  524SOL    HW1 1582   2.382   2.198   1.508
  524SOL    HW2 1583   2.219   2.196   1.503
  525SOL     OW 1584   1.984   2.505   0.563
  525SOL    HW1 1585   1.939   2.417   0.580
  525SOL    HW2 1586   1.983   2.559   0.647
  526SOL     OW 1587   1.975   2.599   1.597
  526SOL    HW1 1588   2.063   2.586   1.642
  526SOL    HW2 1589   1.962   2.696   1.575
  527SOL     OW 1590   2.671   1.866   0.502
  527SOL    HW1 1591   2.711   1.957   0.493
  527SOL    HW2 1592   2.571   1.874   0.508
  528SOL     OW 1593   2.179   2.113   1.801
  528SOL    HW1 1594   2.250   2.184   1.807
  528SOL    HW2 1595   2.091   2.152   1.829
  529SOL     OW 1596   2.460   2.591   0.270
  529SOL    HW1 1597   2.484   2.660   0.202
  529SOL    HW2 1598   2.382   2.624   0.324
  530SOL     OW 1599   2.412   2.058   0.885
  530SOL    HW1 1600   2.407   2.053   0.985
  530SOL    HW2 1601   2.414   2.154   0.856
  531SOL     OW 1602   2.064   2.147   1.498
  531SOL    HW1 1603   1.984   2.207   1.485
  531SOL    HW2 1604   2.054   2.098   1.584
  532SOL     OW 1605   2.476   1.984   0.117
  532SOL    HW1 1606   2.574   1.962   0.124
  532SOL    HW2 1607   2.445   1.967   0.024
  533SOL     OW 1608   2.401   1.926   0.512
  533SOL    HW1 1609   2.320   1.927   0.570
  533SOL    HW2 1610   2.404   2.009   0.457
  534SOL     OW 1611   2.797   2.098   0.480
  534SOL    HW1 1612   2.749   2.139   0.402
  534SOL    HW2 1613   2.896   2.096   0.461
  535SOL     OW 1614   1.940   2.418   1.386
  535SOL    HW1 1615   2.032   2.417   1.345
  535SOL    HW2 1616   1.934   2.492   1.453
  536SOL     OW 1617   2.423   2.084   1.147
  536SOL    HW1 1618   2.461   2.000   1.184
  536SOL    HW2 1619   2.335   2.103   1.191
  537SOL     OW 1620   2.389   2.118   0.328
  537SOL    HW1 1621   2.416   2.059   0.253
  537SOL    HW2 1622   2.389   2.213   0.297
  538SOL     OW 1623   2.428   2.399   0.865
  538SOL    HW1 1624   2.440   2.465   0.791
  538SOL    HW2 1625   2.474   2.433   0.948
  539SOL     OW 1626   2.366   1.912   1.740
  539SOL    HW1 1627   2.324   1.855   1.670
  539SOL    HW2 1628   2.300   1.981   1.772
  540SOL     OW 1629   2.169   2.075   1.231
  540SOL    HW1 1630   2.146   2.112   1.321
  540SOL    HW2 1631   2.139   1.980   1.225
  541SOL     OW 1632   2.169   1.925   0.618
  541SOL    HW1 1633   2.158   2.019   0.651
  541SOL    HW2 1634   2.164   1.862   0.695
  542SOL     OW 1635   2.181   2.672   0.949
  542SOL    HW1 1636   2.274   2.708   0.954
  542SOL    HW2 1637   2.175   2.587   1.001
  543SOL     OW 1638   2.201   2.371   1.006
  543SOL    HW1 1639   2.149   2.288   0.989
  543SOL    HW2 1640   2.278   2.376   0.942
  544SOL     OW 1641   1.902   2.406   1.114
  544SOL    HW1 1642   1.987   2.373   1.073
  544SOL    HW2 1643   1.915   2.421   1.212
  545SOL     OW 1644   2.051   2.382   1.722
  545SOL    HW1 1645   2.110   2.342   1.652
  545SOL    HW2 1646   1.993   2.453   1.681
  546SOL     OW 1647   2.677   2.434   0.325
  546SOL    HW1 1648   2.684   2.345   0.279
  546SOL    HW2 1649   2.583   2.468   0.317
  547SOL     OW 1650   2.335   2.362   0.191
  547SOL    HW1 1651   2.396   2.442   0.195
  547SOL    HW2 1652   2.240   2.393   0.198
  548SOL     OW 1653   2.765   1.948   0.133
  548SOL    HW1 1654   2.816   1.949   0.047
  548SOL    HW2 1655   2.821   1.906   0.204
  549SOL     OW 1656   2.125   2.188   0.720
  549SOL    HW1 1657   2.046   2.239   0.686
  549SOL    HW2 1658   2.116   2.173   0.818
  550SOL     OW 1659   2.534   2.065   1.489
  550SOL    HW1 1660   2.624   2.049   1.449
  550SOL    HW2 1661   2.542   2.070   1.588
  551SOL     OW 1662   1.937   2.207   0.033
  551SOL    HW1 1663   1.845   2.179   0.004
  551SOL    HW2 1664   1.968   2.284  -0.023
  552SOL     OW 1665   2.290   2.286   0.520
  552SOL    HW1 1666   2.320   2.214   0.458
  552SOL    HW2 1667   2.251   2.246   0.603
  553SOL     OW 1668   2.179   2.409   1.280
  553SOL    HW1 1669   2.217   2.350   1.352
  553SOL    HW2 1670   2.219   2.383   1.192
  554SOL     OW 1671   2.087   2.137   2.858
  554SOL    HW1 1672   2.122   2.120   2.950
  554SOL    HW2 1673   1.999   2.092   2.846
  555SOL     OW 1674   1.984   2.505   2.425
  555SOL    HW1 1675   1.939   2.417   2.442
  555SOL    HW2 1676   1.983   2.559   2.509
  556SOL     OW 1677   2.671   1.866   2.364
  556SOL    HW1 1678   2.711   1.957   2.355
  556SOL    HW2 1679   2.571   1.874   2.370
  557SOL     OW 1680   2.476   1.984   1.979
  557SOL    HW1 1681   2.574   1.962   1.986
  557SOL    HW2 1682   2.445   1.967   1.886
  558SOL     OW 1683   2.401   1.926   2.374
  558SOL    HW1 1684   2.320   1.927   2.432
  558SOL    HW2 1685   2.404   2.009   2.319
  559SOL     OW 1686   2.159   1.897   2.033
  559SOL    HW1 1687   2.208   1.981   2.012
  559SOL    HW2 1688   2.221   1.832   2.078
  560SOL     OW 1689   2.797   2.098   2.342
  560SOL    HW1 1690   2.749   2.139   2.264
  560SOL    HW2 1691   2.896   2.096   2.323
  561SOL     OW 1692   2.389   2.118   2.190
  561SOL    HW1 1693   2.416   2.059   2.115
  561SOL    HW2 1694   2.389   2.213   2.159
  562SOL     OW 1695   2.169   1.925   2.480
  562SOL    HW1 1696   2.158   2.019   2.513
  562SOL    HW2 1697   2.164   1.862   2.557
  563SOL     OW 1698   2.677   2.434   2.187
  563SOL    HW1 1699   2.684   2.345   2.141
  563SOL    HW2 1700   2.583   2.468   2.179
  564SOL     OW 1701   2.335   2.362   2.053
  564SOL    HW1 1702   2.396   2.442   2.057
  564SOL    HW2 1703   2.240   2.393   2.060
  565SOL     OW 1704   1.937   2.207   1.895
  565SOL    HW1 1705   1.845   2.179   1.866
  565SOL    HW2 1706   1.968   2.284   1.839
  566SOL     OW 1707   1.934   2.028   2.180
  566SOL    HW1 1708   1.917   2.111   2.126
  566SOL    HW2 1709   2.024   1.991   2.158
  567SOL     OW 1710   2.290   2.286   2.382
  567SOL    HW1 1711   2.320   2.214   2.320
  567SOL    HW2 1712   2.251   2.246   2.465
   2.58927   2.58927   2.58927
