CATECHOL_GMX.gro created by acpype (v: 2023.10.27) on Wed Sep 23 06:23:07 2026
   14
    1MOL     O1    1   1.476   1.148   1.259
    1MOL     C1    2   1.365   1.228   1.281
    1MOL     C2    3   1.240   1.170   1.309
    1MOL     C3    4   1.128   1.250   1.331
    1MOL     C4    5   1.140   1.390   1.326
    1MOL     C5    6   1.264   1.448   1.299
    1MOL     C6    7   1.377   1.368   1.276
    1MOL     O2    8   1.499   1.430   1.249
    1MOL     H1    9   1.471   1.047   1.262
    1MOL     H2   10   1.230   1.062   1.313
    1MOL     H3   11   1.032   1.205   1.352
    1MOL     H4   12   1.053   1.452   1.343
    1MOL     H5   13   1.272   1.556   1.295
    1MOL     H6   14   1.583   1.376   1.232
   2.58927   2.58927   2.58927
