; CATECHOL_GMX.itp created by acpype (v: 2023.10.27) on Wed Sep 23 06:23:07 2026

[ atomtypes ]
;name   bond_type     mass     charge   ptype   sigma         epsilon       Amb
 oh       oh          0.00000  0.00000   A     3.24287e-01   3.89112e-01 ; 1.82  0.0930
 ca       ca          0.00000  0.00000   A     3.31521e-01   4.13379e-01 ; 1.86  0.0988
 ho       ho          0.00000  0.00000   A     5.37925e-02   1.96648e-02 ; 0.30  0.0047
 ha       ha          0.00000  0.00000   A     2.62548e-01   6.73624e-02 ; 1.47  0.0161

[ moleculetype ]
;name            nrexcl
 CATECHOL         3

[ atoms ]
;   nr  type  resi  res  atom  cgnr     charge      mass       ; qtot   bond_type
     1   oh     1   MOL    O1    1    -0.506600     16.00000 ; qtot -0.507
     2   ca     1   MOL    C1    2     0.074600     12.01000 ; qtot -0.432
     3   ca     1   MOL    C2    3    -0.151000     12.01000 ; qtot -0.583
     4   ca     1   MOL    C3    4    -0.129000     12.01000 ; qtot -0.712
     5   ca     1   MOL    C4    5    -0.129000     12.01000 ; qtot -0.841
     6   ca     1   MOL    C5    6    -0.151000     12.01000 ; qtot -0.992
     7   ca     1   MOL    C6    7     0.074600     12.01000 ; qtot -0.917
     8   oh     1   MOL    O2    8    -0.506600     16.00000 ; qtot -1.424
     9   ho     1   MOL    H1    9     0.433000      1.00800 ; qtot -0.991
    10   ha     1   MOL    H2   10     0.143500      1.00800 ; qtot -0.847
    11   ha     1   MOL    H3   11     0.135500      1.00800 ; qtot -0.712
    12   ha     1   MOL    H4   12     0.135500      1.00800 ; qtot -0.577
    13   ha     1   MOL    H5   13     0.143500      1.00800 ; qtot -0.433
    14   ho     1   MOL    H6   14     0.433000      1.00800 ; qtot -0.000

[ bonds ]
;   ai     aj funct   r             k
     1      2   1    1.3644e-01    2.9167e+05 ;     O1 - C1    
     1      9   1    9.7250e-02    4.4811e+05 ;     O1 - H1    
     2      3   1    1.3986e-01    2.9644e+05 ;     C1 - C2    
     2      7   1    1.3986e-01    2.9644e+05 ;     C1 - C6    
     3      4   1    1.3986e-01    2.9644e+05 ;     C2 - C3    
     3     10   1    1.0860e-01    3.0183e+05 ;     C2 - H2    
     4      5   1    1.3986e-01    2.9644e+05 ;     C3 - C4    
     4     11   1    1.0860e-01    3.0183e+05 ;     C3 - H3    
     5      6   1    1.3986e-01    2.9644e+05 ;     C4 - C5    
     5     12   1    1.0860e-01    3.0183e+05 ;     C4 - H4    
     6      7   1    1.3986e-01    2.9644e+05 ;     C5 - C6    
     6     13   1    1.0860e-01    3.0183e+05 ;     C5 - H5    
     7      8   1    1.3644e-01    2.9167e+05 ;     C6 - O2    
     8     14   1    9.7250e-02    4.4811e+05 ;     O2 - H6    

[ pairs ]
;   ai     aj    funct
     1      4      1 ;     O1 - C3    
     1      6      1 ;     O1 - C5    
     1      8      1 ;     O1 - O2    
     1     10      1 ;     O1 - H2    
     2      5      1 ;     C1 - C4    
     2     11      1 ;     C1 - H3    
     2     13      1 ;     C1 - H5    
     2     14      1 ;     C1 - H6    
     3      6      1 ;     C2 - C5    
     3      8      1 ;     C2 - O2    
     3     12      1 ;     C2 - H4    
     4      7      1 ;     C3 - C6    
     4     13      1 ;     C3 - H5    
     5      8      1 ;     C4 - O2    
     5     10      1 ;     C4 - H2    
     6     11      1 ;     C5 - H3    
     6     14      1 ;     C5 - H6    
     7     10      1 ;     C6 - H2    
     7     12      1 ;     C6 - H4    
     8     13      1 ;     O2 - H5    
     9      3      1 ;     H1 - C2    
     9      7      1 ;     H1 - C6    
    10     11      1 ;     H2 - H3    
    11     12      1 ;     H3 - H4    
    12     13      1 ;     H4 - H5    

[ angles ]
;   ai     aj     ak    funct   theta         cth
     1      2      3      1    1.1990e+02    6.5990e+02 ;     O1 - C1     - C2    
     1      2      7      1    1.1990e+02    6.5990e+02 ;     O1 - C1     - C6    
     2      1      9      1    1.0858e+02    5.6409e+02 ;     C1 - O1     - H1    
     2      3      4      1    1.2002e+02    5.3279e+02 ;     C1 - C2     - C3    
     2      3     10      1    1.1988e+02    3.7572e+02 ;     C1 - C2     - H2    
     2      7      6      1    1.2002e+02    5.3279e+02 ;     C1 - C6     - C5    
     2      7      8      1    1.1990e+02    6.5990e+02 ;     C1 - C6     - O2    
     3      2      7      1    1.2002e+02    5.3279e+02 ;     C2 - C1     - C6    
     3      4      5      1    1.2002e+02    5.3279e+02 ;     C2 - C3     - C4    
     3      4     11      1    1.1988e+02    3.7572e+02 ;     C2 - C3     - H3    
     4      3     10      1    1.1988e+02    3.7572e+02 ;     C3 - C2     - H2    
     4      5      6      1    1.2002e+02    5.3279e+02 ;     C3 - C4     - C5    
     4      5     12      1    1.1988e+02    3.7572e+02 ;     C3 - C4     - H4    
     5      4     11      1    1.1988e+02    3.7572e+02 ;     C4 - C3     - H3    
     5      6      7      1    1.2002e+02    5.3279e+02 ;     C4 - C5     - C6    
     5      6     13      1    1.1988e+02    3.7572e+02 ;     C4 - C5     - H5    
     6      5     12      1    1.1988e+02    3.7572e+02 ;     C5 - C4     - H4    
     6      7      8      1    1.1990e+02    6.5990e+02 ;     C5 - C6     - O2    
     7      6     13      1    1.1988e+02    3.7572e+02 ;     C6 - C5     - H5    
     7      8     14      1    1.0858e+02    5.6409e+02 ;     C6 - O2     - H6    

[ dihedrals ] ; propers
; for gromacs 4.5 or higher, using funct 9
;    i      j      k      l   func   phase     kd      pn
     1      2      3      4      9   180.00  15.16700   2 ;     O1-    C1-    C2-    C3
     1      2      3     10      9   180.00  15.16700   2 ;     O1-    C1-    C2-    H2
     1      2      7      6      9   180.00  15.16700   2 ;     O1-    C1-    C6-    C5
     1      2      7      8      9   180.00  15.16700   2 ;     O1-    C1-    C6-    O2
     2      3      4      5      9   180.00  15.16700   2 ;     C1-    C2-    C3-    C4
     2      3      4     11      9   180.00  15.16700   2 ;     C1-    C2-    C3-    H3
     2      7      6      5      9   180.00  15.16700   2 ;     C1-    C6-    C5-    C4
     2      7      6     13      9   180.00  15.16700   2 ;     C1-    C6-    C5-    H5
     2      7      8     14      9   180.00   3.57732   2 ;     C1-    C6-    O2-    H6
     3      2      7      6      9   180.00  15.16700   2 ;     C2-    C1-    C6-    C5
     3      2      7      8      9   180.00  15.16700   2 ;     C2-    C1-    C6-    O2
     3      4      5      6      9   180.00  15.16700   2 ;     C2-    C3-    C4-    C5
     3      4      5     12      9   180.00  15.16700   2 ;     C2-    C3-    C4-    H4
     4      3      2      7      9   180.00  15.16700   2 ;     C3-    C2-    C1-    C6
     4      5      6      7      9   180.00  15.16700   2 ;     C3-    C4-    C5-    C6
     4      5      6     13      9   180.00  15.16700   2 ;     C3-    C4-    C5-    H5
     5      4      3     10      9   180.00  15.16700   2 ;     C4-    C3-    C2-    H2
     5      6      7      8      9   180.00  15.16700   2 ;     C4-    C5-    C6-    O2
     6      5      4     11      9   180.00  15.16700   2 ;     C5-    C4-    C3-    H3
     6      7      8     14      9   180.00   3.57732   2 ;     C5-    C6-    O2-    H6
     7      2      3     10      9   180.00  15.16700   2 ;     C6-    C1-    C2-    H2
     7      6      5     12      9   180.00  15.16700   2 ;     C6-    C5-    C4-    H4
     8      7      6     13      9   180.00  15.16700   2 ;     O2-    C6-    C5-    H5
     9      1      2      3      9   180.00   3.57732   2 ;     H1-    O1-    C1-    C2
     9      1      2      7      9   180.00   3.57732   2 ;     H1-    O1-    C1-    C6
    10      3      4     11      9   180.00  15.16700   2 ;     H2-    C2-    C3-    H3
    11      4      5     12      9   180.00  15.16700   2 ;     H3-    C3-    C4-    H4
    12      5      6     13      9   180.00  15.16700   2 ;     H4-    C4-    C5-    H5

[ dihedrals ] ; impropers
; treated as propers in GROMACS to use correct AMBER analytical function
;    i      j      k      l   func   phase     kd      pn
     1      2      7      3      4   180.00  43.93200   2 ;     O1-    C1-    C6-    C2
     2      4      3     10      4   180.00   4.60240   2 ;     C1-    C3-    C2-    H2
     2      6      7      8      4   180.00  43.93200   2 ;     C1-    C5-    C6-    O2
     3      5      4     11      4   180.00   4.60240   2 ;     C2-    C4-    C3-    H3
     4      6      5     12      4   180.00   4.60240   2 ;     C3-    C5-    C4-    H4
     5      7      6     13      4   180.00   4.60240   2 ;     C4-    C6-    C5-    H5
