CATECHOL in water
 1712
    1MOL     O1    1   1.447   1.113   1.297
    1MOL     C1    2   1.358   1.215   1.276
    1MOL     C2    3   1.220   1.188   1.276
    1MOL     C3    4   1.129   1.293   1.252
    1MOL     C4    5   1.175   1.423   1.227
    1MOL     C5    6   1.313   1.450   1.228
    1MOL     C6    7   1.404   1.346   1.254
    1MOL     O2    8   1.538   1.374   1.257
    1MOL     H1    9   1.397   1.032   1.323
    1MOL     H2   10   1.183   1.088   1.294
    1MOL     H3   11   1.022   1.273   1.252
    1MOL     H4   12   1.104   1.503   1.208
    1MOL     H5   13   1.349   1.551   1.211
    1MOL     H6   14   1.576   1.322   1.332
    2SOL     OW   15   0.245   0.589   0.066
    2SOL    HW1   16   0.191   0.592   0.150
    2SOL    HW2   17   0.184   0.573  -0.012
    3SOL     OW   18   0.176   0.294   1.109
    3SOL    HW1   19   0.235   0.267   1.186
    3SOL    HW2   20   0.174   0.220   1.042
    4SOL     OW   21   0.101   0.323   0.687
    4SOL    HW1   22   0.059   0.401   0.733
    4SOL    HW2   23   0.109   0.342   0.590
    5SOL     OW   24   0.500   1.313   1.175
    5SOL    HW1   25   0.410   1.285   1.141
    5SOL    HW2   26   0.499   1.410   1.196
    6SOL     OW   27   1.591   1.445   0.714
    6SOL    HW1   28   1.533   1.430   0.794
    6SOL    HW2   29   1.536   1.480   0.638
    7SOL     OW   30   1.107   0.678   0.650
    7SOL    HW1   31   1.146   0.769   0.650
    7SOL    HW2   32   1.040   0.670   0.724
    8SOL     OW   33   1.855   0.643   0.239
    8SOL    HW1   34   1.805   0.649   0.152
    8SOL    HW2   35   1.813   0.574   0.297
    9SOL     OW   36   0.664   1.146   1.018
    9SOL    HW1   37   0.606   1.194   1.084
    9SOL    HW2   38   0.712   1.213   0.961
   10SOL     OW   39   0.890   0.761   1.797
   10SOL    HW1   40   0.923   0.818   1.873
   10SOL    HW2   41   0.884   0.817   1.714
   11SOL     OW   42   0.675   0.946   0.636
   11SOL    HW1   43   0.747   0.961   0.704
   11SOL    HW2   44   0.597   1.005   0.657
   12SOL     OW   45   0.632   1.168   1.853
   12SOL    HW1   46   0.710   1.229   1.867
   12SOL    HW2   47   0.568   1.210   1.789
   13SOL     OW   48   0.235   1.396   1.006
   13SOL    HW1   49   0.169   1.397   0.931
   13SOL    HW2   50   0.318   1.445   0.979
   14SOL     OW   51   0.527   0.421   1.445
   14SOL    HW1   52   0.587   0.347   1.475
   14SOL    HW2   53   0.439   0.413   1.493
   15SOL     OW   54   1.627   0.483   0.760
   15SOL    HW1   55   1.592   0.495   0.667
   15SOL    HW2   56   1.583   0.549   0.821
   16SOL     OW   57   0.283   1.691   0.538
   16SOL    HW1   58   0.216   1.765   0.531
   16SOL    HW2   59   0.368   1.717   0.492
   17SOL     OW   60   1.192   1.336   1.655
   17SOL    HW1   61   1.279   1.295   1.627
   17SOL    HW2   62   1.133   1.266   1.694
   18SOL     OW   63   0.144   1.463   0.521
   18SOL    HW1   64   0.199   1.545   0.530
   18SOL    HW2   65   0.050   1.488   0.497
   19SOL     OW   66   0.252   1.039   0.847
   19SOL    HW1   67   0.264   0.942   0.872
   19SOL    HW2   68   0.209   1.087   0.924
   20SOL     OW   69   0.559   1.725   1.452
   20SOL    HW1   70   0.485   1.717   1.519
   20SOL    HW2   71   0.603   1.815   1.460
   21SOL     OW   72   0.554   0.959   0.166
   21SOL    HW1   73   0.506   1.034   0.120
   21SOL    HW2   74   0.618   0.996   0.233
   22SOL     OW   75   1.503   0.054   1.448
   22SOL    HW1   76   1.552   0.058   1.362
   22SOL    HW2   77   1.488   0.146   1.483
   23SOL     OW   78   0.199   0.684   0.588
   23SOL    HW1   79   0.140   0.625   0.643
   23SOL    HW2   80   0.164   0.778   0.592
   24SOL     OW   81   1.878   1.739   0.288
   24SOL    HW1   82   1.953   1.732   0.353
   24SOL    HW2   83   1.877   1.831   0.248
   25SOL     OW   84   2.502   1.659   0.136
   25SOL    HW1   85   2.510   1.587   0.067
   25SOL    HW2   86   2.574   1.726   0.121
   26SOL     OW   87   1.700   0.844   0.677
   26SOL    HW1   88   1.776   0.839   0.742
   26SOL    HW2   89   1.737   0.848   0.584
   27SOL     OW   90   1.619   1.102   0.456
   27SOL    HW1   91   1.697   1.108   0.395
   27SOL    HW2   92   1.648   1.121   0.550
   28SOL     OW   93   0.115   0.830   1.484
   28SOL    HW1   94   0.160   0.876   1.407
   28SOL    HW2   95   0.145   0.872   1.570
   29SOL     OW   96   0.561   1.370   0.728
   29SOL    HW1   97   0.525   1.278   0.713
   29SOL    HW2   98   0.570   1.416   0.640
   30SOL     OW   99   0.817   0.108   0.537
   30SOL    HW1  100   0.837   0.198   0.499
   30SOL    HW2  101   0.735   0.071   0.494
   31SOL     OW  102   0.228   0.983   1.286
   31SOL    HW1  103   0.315   0.935   1.268
   31SOL    HW2  104   0.201   1.033   1.203
   32SOL     OW  105   1.508   0.954   0.240
   32SOL    HW1  106   1.433   0.889   0.251
   32SOL    HW2  107   1.532   0.993   0.329
   33SOL     OW  108   1.303   1.876   1.642
   33SOL    HW1  109   1.249   1.924   1.574
   33SOL    HW2  110   1.298   1.777   1.626
   34SOL     OW  111   0.371   0.324   1.826
   34SOL    HW1  112   0.417   0.385   1.891
   34SOL    HW2  113   0.272   0.327   1.842
   35SOL     OW  114   1.426   1.376   0.925
   35SOL    HW1  115   1.411   1.377   1.024
   35SOL    HW2  116   1.431   1.282   0.893
   36SOL     OW  117   1.632   1.886   0.539
   36SOL    HW1  118   1.632   1.812   0.472
   36SOL    HW2  119   1.658   1.850   0.629
   37SOL     OW  120   0.584   0.687   0.219
   37SOL    HW1  121   0.579   0.782   0.191
   37SOL    HW2  122   0.520   0.671   0.294
   38SOL     OW  123   1.274   0.374   0.939
   38SOL    HW1  124   1.189   0.324   0.956
   38SOL    HW2  125   1.344   0.342   1.003
   39SOL     OW  126   1.616   1.686   0.356
   39SOL    HW1  127   1.714   1.690   0.334
   39SOL    HW2  128   1.563   1.680   0.272
   40SOL     OW  129   0.777   0.612   1.448
   40SOL    HW1  130   0.746   0.569   1.532
   40SOL    HW2  131   0.753   0.555   1.369
   41SOL     OW  132   1.374   0.446   1.649
   41SOL    HW1  133   1.376   0.505   1.730
   41SOL    HW2  134   1.428   0.364   1.667
   42SOL     OW  135   0.935   0.951   1.591
   42SOL    HW1  136   0.985   0.880   1.543
   42SOL    HW2  137   0.877   1.000   1.526
   43SOL     OW  138   0.992   0.460   1.102
   43SOL    HW1  139   0.905   0.469   1.151
   43SOL    HW2  140   1.002   0.367   1.068
   44SOL     OW  141   1.058   0.684   0.376
   44SOL    HW1  142   1.063   0.676   0.476
   44SOL    HW2  143   0.968   0.654   0.345
   45SOL     OW  144   0.006   0.816   0.867
   45SOL    HW1  145   0.097   0.810   0.908
   45SOL    HW2  146  -0.059   0.854   0.933
   46SOL     OW  147   0.117   1.855   1.647
   46SOL    HW1  148   0.102   1.829   1.742
   46SOL    HW2  149   0.039   1.823   1.591
   47SOL     OW  150   0.811   0.341   0.150
   47SOL    HW1  151   0.804   0.363   0.053
   47SOL    HW2  152   0.826   0.243   0.161
   48SOL     OW  153   1.647   0.584   1.813
   48SOL    HW1  154   1.639   0.672   1.767
   48SOL    HW2  155   1.678   0.515   1.748
   49SOL     OW  156   1.358   1.143   0.537
   49SOL    HW1  157   1.449   1.132   0.497
   49SOL    HW2  158   1.309   1.216   0.489
   50SOL     OW  159   0.480   0.248   0.920
   50SOL    HW1  160   0.527   0.235   1.007
   50SOL    HW2  161   0.506   0.337   0.881
   51SOL     OW  162   0.994   1.440   0.470
   51SOL    HW1  163   0.955   1.527   0.441
   51SOL    HW2  164   0.993   1.435   0.570
   52SOL     OW  165   0.292   1.776   0.919
   52SOL    HW1  166   0.339   1.690   0.900
   52SOL    HW2  167   0.353   1.837   0.969
   53SOL     OW  168   1.811   1.083   0.936
   53SOL    HW1  169   1.781   1.126   0.851
   53SOL    HW2  170   1.731   1.059   0.991
   54SOL     OW  171   1.267   1.603   1.566
   54SOL    HW1  172   1.248   1.515   1.609
   54SOL    HW2  173   1.270   1.592   1.467
   55SOL     OW  174   0.318   0.877   0.293
   55SOL    HW1  175   0.397   0.900   0.235
   55SOL    HW2  176   0.328   0.784   0.328
   56SOL     OW  177   1.447   0.752   0.696
   56SOL    HW1  178   1.434   0.712   0.787
   56SOL    HW2  179   1.539   0.792   0.691
   57SOL     OW  180   0.447   1.305   1.696
   57SOL    HW1  181   0.406   1.341   1.612
   57SOL    HW2  182   0.376   1.294   1.766
   58SOL     OW  183   1.050   1.720   0.149
   58SOL    HW1  184   0.994   1.690   0.226
   58SOL    HW2  185   1.071   1.641   0.090
   59SOL     OW  186   0.281   0.343   1.553
   59SOL    HW1  187   0.223   0.420   1.526
   59SOL    HW2  188   0.312   0.356   1.647
   60SOL     OW  189   1.690   1.306   2.535
   60SOL    HW1  190   1.659   1.399   2.512
   60SOL    HW2  191   1.617   1.259   2.584
   61SOL     OW  192   0.510   1.771   0.400
   61SOL    HW1  193   0.534   1.852   0.453
   61SOL    HW2  194   0.569   1.765   0.320
   62SOL     OW  195   1.457   0.143   0.358
   62SOL    HW1  196   1.417   0.082   0.289
   62SOL    HW2  197   1.516   0.091   0.419
   63SOL     OW  198   0.093   1.784   1.215
   63SOL    HW1  199   0.144   1.701   1.238
   63SOL    HW2  200   0.051   1.773   1.124
   64SOL     OW  201   0.870   1.677   0.942
   64SOL    HW1  202   0.871   1.598   1.002
   64SOL    HW2  203   0.829   1.652   0.854
   65SOL     OW  204   0.407   0.630   0.425
   65SOL    HW1  205   0.417   0.531   0.418
   65SOL    HW2  206   0.330   0.652   0.485
   66SOL     OW  207   1.519   0.220   1.736
   66SOL    HW1  208   1.499   0.236   1.833
   66SOL    HW2  209   1.564   0.131   1.727
   67SOL     OW  210   0.627   0.017   0.058
   67SOL    HW1  211   0.721   0.027   0.090
   67SOL    HW2  212   0.623   0.033  -0.040
   68SOL     OW  213   0.803   0.266   1.779
   68SOL    HW1  214   0.835   0.172   1.767
   68SOL    HW2  215   0.810   0.292   1.875
   69SOL     OW  216   0.839   1.465   1.115
   69SOL    HW1  217   0.819   1.407   1.036
   69SOL    HW2  218   0.809   1.419   1.198
   70SOL     OW  219   1.268   0.602   1.445
   70SOL    HW1  220   1.314   0.551   1.518
   70SOL    HW2  221   1.319   0.685   1.425
   71SOL     OW  222   0.788   1.342   0.874
   71SOL    HW1  223   0.871   1.364   0.823
   71SOL    HW2  224   0.708   1.359   0.817
   72SOL     OW  225   0.940   0.612   0.872
   72SOL    HW1  226   0.899   0.560   0.797
   72SOL    HW2  227   0.964   0.549   0.946
   73SOL     OW  228   0.593   0.014   0.400
   73SOL    HW1  229   0.516  -0.014   0.458
   73SOL    HW2  230   0.560   0.077   0.330
   74SOL     OW  231   1.484   1.168   0.061
   74SOL    HW1  232   1.484   1.088   0.121
   74SOL    HW2  233   1.442   1.144  -0.026
   75SOL     OW  234   0.243   0.071   0.134
   75SOL    HW1  235   0.330   0.115   0.155
   75SOL    HW2  236   0.243  -0.021   0.172
   76SOL     OW  237   0.900   0.342   0.426
   76SOL    HW1  238   0.853   0.356   0.338
   76SOL    HW2  239   0.999   0.346   0.411
   77SOL     OW  240   1.023   0.734   1.444
   77SOL    HW1  241   0.944   0.674   1.455
   77SOL    HW2  242   1.106   0.679   1.446
   78SOL     OW  243   1.234   1.562   0.855
   78SOL    HW1  244   1.259   1.619   0.776
   78SOL    HW2  245   1.307   1.496   0.872
   79SOL     OW  246   0.464   1.115   0.692
   79SOL    HW1  247   0.393   1.091   0.758
   79SOL    HW2  248   0.425   1.114   0.600
   80SOL     OW  249   1.264   1.748   0.648
   80SOL    HW1  250   1.301   1.825   0.595
   80SOL    HW2  251   1.175   1.774   0.686
   81SOL     OW  252   1.051   0.540   2.556
   81SOL    HW1  253   0.964   0.495   2.533
   81SOL    HW2  254   1.072   0.524   2.652
   82SOL     OW  255   0.152   0.561   1.415
   82SOL    HW1  256   0.236   0.571   1.361
   82SOL    HW2  257   0.129   0.648   1.457
   83SOL     OW  258   0.590   0.256   1.179
   83SOL    HW1  259   0.668   0.216   1.228
   83SOL    HW2  260   0.506   0.242   1.232
   84SOL     OW  261   0.830   0.504   0.650
   84SOL    HW1  262   0.750   0.561   0.628
   84SOL    HW2  263   0.851   0.445   0.572
   85SOL     OW  264   0.953   0.098   0.772
   85SOL    HW1  265   0.890   0.103   0.695
   85SOL    HW2  266   1.048   0.099   0.739
   86SOL     OW  267   1.472   1.128   0.813
   86SOL    HW1  268   1.402   1.115   0.743
   86SOL    HW2  269   1.562   1.139   0.770
   87SOL     OW  270   1.426   0.616   0.939
   87SOL    HW1  271   1.361   0.541   0.936
   87SOL    HW2  272   1.490   0.602   1.014
   88SOL     OW  273   1.852   0.829   0.437
   88SOL    HW1  274   1.910   0.786   0.506
   88SOL    HW2  275   1.848   0.771   0.356
   89SOL     OW  276   0.420   1.518   0.180
   89SOL    HW1  277   0.369   1.452   0.234
   89SOL    HW2  278   0.460   1.472   0.100
   90SOL     OW  279   1.718   1.202   0.700
   90SOL    HW1  280   1.814   1.201   0.672
   90SOL    HW2  281   1.684   1.296   0.698
   91SOL     OW  282   1.443   0.612   0.093
   91SOL    HW1  283   1.387   0.672   0.151
   91SOL    HW2  284   1.450   0.522   0.137
   92SOL     OW  285   0.488   0.202   0.199
   92SOL    HW1  286   0.541   0.139   0.143
   92SOL    HW2  287   0.488   0.292   0.157
   93SOL     OW  288   1.673   1.283   1.480
   93SOL    HW1  289   1.744   1.213   1.466
   93SOL    HW2  290   1.714   1.362   1.526
   94SOL     OW  291   1.655   1.684   1.722
   94SOL    HW1  292   1.714   1.765   1.721
   94SOL    HW2  293   1.694   1.613   1.663
   95SOL     OW  294   1.572   1.027   1.057
   95SOL    HW1  295   1.529   1.074   1.135
   95SOL    HW2  296   1.520   1.047   0.974
   96SOL     OW  297   0.820   0.178   1.322
   96SOL    HW1  298   0.864   0.107   1.268
   96SOL    HW2  299   0.890   0.235   1.366
   97SOL     OW  300   1.016   1.151   1.771
   97SOL    HW1  301   0.943   1.210   1.806
   97SOL    HW2  302   0.979   1.088   1.703
   98SOL     OW  303   0.727   1.045   0.370
   98SOL    HW1  304   0.705   1.010   0.461
   98SOL    HW2  305   0.816   1.010   0.341
   99SOL     OW  306   0.459   0.839   1.272
   99SOL    HW1  307   0.516   0.852   1.353
   99SOL    HW2  308   0.426   0.745   1.269
  100SOL     OW  309   1.227   0.410   1.255
  100SOL    HW1  310   1.244   0.483   1.321
  100SOL    HW2  311   1.151   0.435   1.196
  101SOL     OW  312   2.543   1.511   1.375
  101SOL    HW1  313   2.536   1.592   1.434
  101SOL    HW2  314   2.631   1.511   1.329
  102SOL     OW  315   0.350   1.105   0.451
  102SOL    HW1  316   0.330   1.187   0.398
  102SOL    HW2  317   0.338   1.024   0.393
  103SOL     OW  318   0.524   0.506   0.833
  103SOL    HW1  319   0.536   0.545   0.742
  103SOL    HW2  320   0.581   0.556   0.898
  104SOL     OW  321   1.251   1.372   0.403
  104SOL    HW1  322   1.313   1.435   0.448
  104SOL    HW2  323   1.156   1.393   0.429
  105SOL     OW  324   1.512   0.542   0.515
  105SOL    HW1  325   1.476   0.626   0.557
  105SOL    HW2  326   1.438   0.492   0.472
  106SOL     OW  327   0.218   1.533   1.249
  106SOL    HW1  328   0.202   1.484   1.163
  106SOL    HW2  329   0.313   1.561   1.254
  107SOL     OW  330   0.495   0.702   1.687
  107SOL    HW1  331   0.527   0.762   1.613
  107SOL    HW2  332   0.563   0.632   1.706
  108SOL     OW  333   1.616   0.820   1.678
  108SOL    HW1  334   1.526   0.860   1.661
  108SOL    HW2  335   1.675   0.835   1.599
  109SOL     OW  336   0.930   0.009   1.773
  109SOL    HW1  337   0.997   0.067   1.820
  109SOL    HW2  338   0.967  -0.020   1.684
  110SOL     OW  339   0.529   0.105   1.775
  110SOL    HW1  340   0.570   0.119   1.684
  110SOL    HW2  341   0.467   0.181   1.795
  111SOL     OW  342   0.535   0.896   1.018
  111SOL    HW1  343   0.576   0.987   1.005
  111SOL    HW2  344   0.511   0.884   1.115
  112SOL     OW  345   1.271   0.806   1.099
  112SOL    HW1  346   1.181   0.830   1.061
  112SOL    HW2  347   1.322   0.752   1.032
  113SOL     OW  348   1.139   0.462   0.230
  113SOL    HW1  349   1.213   0.426   0.286
  113SOL    HW2  350   1.104   0.546   0.270
  114SOL     OW  351   0.344   0.209   1.311
  114SOL    HW1  352   0.327   0.259   1.396
  114SOL    HW2  353   0.349   0.111   1.331
  115SOL     OW  354   2.534   1.229   1.404
  115SOL    HW1  355   2.622   1.205   1.445
  115SOL    HW2  356   2.520   1.328   1.410
  116SOL     OW  357   0.683   0.666   0.990
  116SOL    HW1  358   0.766   0.675   0.935
  116SOL    HW2  359   0.633   0.753   0.990
  117SOL     OW  360   1.740   1.007   1.842
  117SOL    HW1  361   1.694   0.933   1.792
  117SOL    HW2  362   1.693   1.021   1.929
  118SOL     OW  363   0.369   2.561   0.554
  118SOL    HW1  364   0.366   2.651   0.598
  118SOL    HW2  365   0.276   2.531   0.531
  119SOL     OW  366   1.735   0.448   0.382
  119SOL    HW1  367   1.766   0.369   0.435
  119SOL    HW2  368   1.654   0.488   0.425
  120SOL     OW  369   1.013   0.840   1.002
  120SOL    HW1  370   0.963   0.840   1.088
  120SOL    HW2  371   0.993   0.756   0.952
  121SOL     OW  372   1.010   1.522   1.754
  121SOL    HW1  373   0.967   1.582   1.687
  121SOL    HW2  374   1.069   1.455   1.707
  122SOL     OW  375   1.824   1.489   1.596
  122SOL    HW1  376   1.886   1.521   1.524
  122SOL    HW2  377   1.874   1.478   1.681
  123SOL     OW  378   0.387   0.902   1.849
  123SOL    HW1  379   0.454   0.938   1.914
  123SOL    HW2  380   0.430   0.829   1.796
  124SOL     OW  381   1.750   0.337   0.124
  124SOL    HW1  382   1.652   0.334   0.104
  124SOL    HW2  383   1.765   0.385   0.211
  125SOL     OW  384   1.339   0.912   2.522
  125SOL    HW1  385   1.409   0.841   2.519
  125SOL    HW2  386   1.361   0.984   2.456
  126SOL     OW  387   1.026   1.400   0.744
  126SOL    HW1  388   1.054   1.304   0.747
  126SOL    HW2  389   1.093   1.455   0.794
  127SOL     OW  390   0.281   0.788   0.954
  127SOL    HW1  391   0.373   0.823   0.970
  127SOL    HW2  392   0.279   0.690   0.975
  128SOL     OW  393   0.311   0.518   1.013
  128SOL    HW1  394   0.257   0.436   1.033
  128SOL    HW2  395   0.375   0.499   0.939
  129SOL     OW  396   1.122   0.355   1.701
  129SOL    HW1  397   1.077   0.424   1.757
  129SOL    HW2  398   1.213   0.389   1.674
  130SOL     OW  399   1.022   0.317   1.440
  130SOL    HW1  400   1.049   0.322   1.536
  130SOL    HW2  401   1.102   0.334   1.382
  131SOL     OW  402   0.073   1.187   0.178
  131SOL    HW1  403  -0.010   1.241   0.196
  131SOL    HW2  404   0.074   1.107   0.237
  132SOL     OW  405   0.044   1.659   0.939
  132SOL    HW1  406   0.057   1.576   0.885
  132SOL    HW2  407   0.125   1.718   0.930
  133SOL     OW  408   0.443   1.539   0.908
  133SOL    HW1  409   0.513   1.597   0.948
  133SOL    HW2  410   0.484   1.480   0.838
  134SOL     OW  411   0.870   0.825   1.232
  134SOL    HW1  412   0.934   0.801   1.305
  134SOL    HW2  413   0.797   0.757   1.228
  135SOL     OW  414   2.569   0.459   1.226
  135SOL    HW1  415   2.622   0.387   1.181
  135SOL    HW2  416   2.624   0.501   1.297
  136SOL     OW  417   0.241   0.590   1.724
  136SOL    HW1  418   0.332   0.629   1.707
  136SOL    HW2  419   0.187   0.655   1.777
  137SOL     OW  420   1.378   0.938   1.609
  137SOL    HW1  421   1.391   1.038   1.609
  137SOL    HW2  422   1.360   0.908   1.515
  138SOL     OW  423   0.835   0.591   0.258
  138SOL    HW1  424   0.830   0.502   0.213
  138SOL    HW2  425   0.748   0.639   0.247
  139SOL     OW  426   1.604   0.546   1.139
  139SOL    HW1  427   1.551   0.461   1.152
  139SOL    HW2  428   1.698   0.532   1.170
  140SOL     OW  429   0.311   1.567   1.869
  140SOL    HW1  430   0.232   1.626   1.889
  140SOL    HW2  431   0.279   1.472   1.858
  141SOL     OW  432   0.732   0.497   1.197
  141SOL    HW1  433   0.678   0.413   1.195
  141SOL    HW2  434   0.704   0.556   1.121
  142SOL     OW  435   0.878   1.673   1.553
  142SOL    HW1  436   0.824   1.610   1.497
  142SOL    HW2  437   0.909   1.750   1.497
  143SOL     OW  438   0.482   0.457   0.085
  143SOL    HW1  439   0.544   0.524   0.125
  143SOL    HW2  440   0.391   0.497   0.075
  144SOL     OW  441   0.186   1.149   1.495
  144SOL    HW1  442   0.189   1.096   1.580
  144SOL    HW2  443   0.212   1.090   1.419
  145SOL     OW  444   1.284   0.789   0.248
  145SOL    HW1  445   1.214   0.746   0.305
  145SOL    HW2  446   1.245   0.867   0.200
  146SOL     OW  447   1.742   1.734   1.110
  146SOL    HW1  448   1.811   1.762   1.044
  146SOL    HW2  449   1.735   1.634   1.110
  147SOL     OW  450   1.254   1.758   1.056
  147SOL    HW1  451   1.345   1.798   1.051
  147SOL    HW2  452   1.244   1.687   0.987
  148SOL     OW  453   0.144   1.150   1.079
  148SOL    HW1  454   0.179   1.241   1.058
  148SOL    HW2  455   0.045   1.155   1.096
  149SOL     OW  456   0.692   1.684   1.753
  149SOL    HW1  457   0.626   1.758   1.739
  149SOL    HW2  458   0.767   1.693   1.688
  150SOL     OW  459   0.871   0.071   0.177
  150SOL    HW1  460   0.964   0.103   0.156
  150SOL    HW2  461   0.877  -0.005   0.242
  151SOL     OW  462   1.831   0.224   0.512
  151SOL    HW1  463   1.850   0.193   0.419
  151SOL    HW2  464   1.835   0.147   0.575
  152SOL     OW  465   1.425   1.557   0.521
  152SOL    HW1  466   1.491   1.600   0.460
  152SOL    HW2  467   1.366   1.627   0.561
  153SOL     OW  468   0.096   1.753   1.905
  153SOL    HW1  469   0.061   1.696   1.979
  153SOL    HW2  470   0.156   1.824   1.943
  154SOL     OW  471   1.240   0.923   0.648
  154SOL    HW1  472   1.317   0.861   0.665
  154SOL    HW2  473   1.271   1.000   0.593
  155SOL     OW  474   0.726   1.321   1.340
  155SOL    HW1  475   0.712   1.365   1.429
  155SOL    HW2  476   0.638   1.315   1.292
  156SOL     OW  477   0.665   1.645   0.196
  156SOL    HW1  478   0.703   1.646   0.103
  156SOL    HW2  479   0.578   1.595   0.197
  157SOL     OW  480   1.828   1.804   1.361
  157SOL    HW1  481   1.783   1.772   1.278
  157SOL    HW2  482   1.762   1.855   1.417
  158SOL     OW  483   1.840   0.146   1.024
  158SOL    HW1  484   1.916   0.099   0.978
  158SOL    HW2  485   1.771   0.173   0.957
  159SOL     OW  486   0.361   0.221   0.667
  159SOL    HW1  487   0.269   0.256   0.684
  159SOL    HW2  488   0.413   0.222   0.752
  160SOL     OW  489   1.167   1.506   2.566
  160SOL    HW1  490   1.150   1.427   2.624
  160SOL    HW2  491   1.261   1.505   2.533
  161SOL     OW  492   0.784   1.053   1.389
  161SOL    HW1  493   0.810   1.006   1.304
  161SOL    HW2  494   0.767   1.150   1.370
  162SOL     OW  495   0.969   0.943   0.301
  162SOL    HW1  496   1.034   0.977   0.233
  162SOL    HW2  497   0.998   0.853   0.333
  163SOL     OW  498   1.464   1.666   0.131
  163SOL    HW1  499   1.448   1.568   0.140
  163SOL    HW2  500   1.438   1.697   0.039
  164SOL     OW  501   0.303   1.393   1.483
  164SOL    HW1  502   0.269   1.447   1.406
  164SOL    HW2  503   0.254   1.306   1.487
  165SOL     OW  504   1.071   1.129   0.751
  165SOL    HW1  505   0.984   1.092   0.780
  165SOL    HW2  506   1.130   1.055   0.718
  166SOL     OW  507   1.047   0.217   1.000
  166SOL    HW1  508   1.008   0.184   0.914
  166SOL    HW2  509   1.032   0.148   1.071
  167SOL     OW  510   0.615   1.510   0.500
  167SOL    HW1  511   0.657   1.448   0.434
  167SOL    HW2  512   0.563   1.581   0.452
  168SOL     OW  513   1.708   0.293   1.380
  168SOL    HW1  514   1.760   0.364   1.330
  168SOL    HW2  515   1.700   0.212   1.322
  169SOL     OW  516   0.264   1.331   0.313
  169SOL    HW1  517   0.191   1.290   0.259
  169SOL    HW2  518   0.226   1.377   0.392
  170SOL     OW  519   0.165   0.977   1.713
  170SOL    HW1  520   0.096   1.026   1.768
  170SOL    HW2  521   0.248   0.966   1.768
  171SOL     OW  522   0.664   0.207   1.547
  171SOL    HW1  523   0.722   0.180   1.470
  171SOL    HW2  524   0.721   0.236   1.623
  172SOL     OW  525   2.538   0.356   0.003
  172SOL    HW1  526   2.467   0.398   0.060
  172SOL    HW2  527   2.589   0.428  -0.045
  173SOL     OW  528   1.376   0.848   1.345
  173SOL    HW1  529   1.320   0.832   1.263
  173SOL    HW2  530   1.472   0.831   1.323
  174SOL     OW  531   0.048   0.235   0.226
  174SOL    HW1  532   0.013   0.280   0.144
  174SOL    HW2  533   0.116   0.166   0.201
  175SOL     OW  534   1.117   1.289   0.148
  175SOL    HW1  535   1.025   1.327   0.138
  175SOL    HW2  536   1.149   1.306   0.242
  176SOL     OW  537   0.628   0.842   1.485
  176SOL    HW1  538   0.678   0.926   1.469
  176SOL    HW2  539   0.689   0.764   1.473
  177SOL     OW  540   1.509   1.873   1.043
  177SOL    HW1  541   1.541   1.934   0.970
  177SOL    HW2  542   1.586   1.819   1.077
  178SOL     OW  543   0.723   0.540   1.712
  178SOL    HW1  544   0.783   0.607   1.756
  178SOL    HW2  545   0.753   0.447   1.736
  179SOL     OW  546   1.438   1.206   1.616
  179SOL    HW1  547   1.461   1.216   1.713
  179SOL    HW2  548   1.516   1.235   1.560
  180SOL     OW  549   0.357   1.719   1.636
  180SOL    HW1  550   0.266   1.759   1.624
  180SOL    HW2  551   0.351   1.645   1.704
  181SOL     OW  552   1.623   0.811   1.232
  181SOL    HW1  553   1.620   0.719   1.194
  181SOL    HW2  554   1.616   0.878   1.159
  182SOL     OW  555   1.312   0.372   0.423
  182SOL    HW1  556   1.355   0.283   0.410
  182SOL    HW2  557   1.276   0.379   0.516
  183SOL     OW  558   0.611   0.671   0.612
  183SOL    HW1  559   0.637   0.768   0.621
  183SOL    HW2  560   0.540   0.663   0.541
  184SOL     OW  561   1.718   0.373   1.643
  184SOL    HW1  562   1.723   0.356   1.545
  184SOL    HW2  563   1.645   0.318   1.683
  185SOL     OW  564   1.770   0.876   1.458
  185SOL    HW1  565   1.809   0.967   1.444
  185SOL    HW2  566   1.723   0.846   1.375
  186SOL     OW  567   0.884   1.426   0.116
  186SOL    HW1  568   0.819   1.398   0.186
  186SOL    HW2  569   0.839   1.486   0.050
  187SOL     OW  570   0.607   1.718   1.031
  187SOL    HW1  571   0.574   1.812   1.024
  187SOL    HW2  572   0.705   1.715   1.007
  188SOL     OW  573   0.845   0.999   0.853
  188SOL    HW1  574   0.912   0.947   0.906
  188SOL    HW2  575   0.782   1.045   0.915
  189SOL     OW  576   1.173   1.013   0.127
  189SOL    HW1  577   1.156   1.111   0.120
  189SOL    HW2  578   1.222   0.982   0.045
  190SOL     OW  579   1.814   1.545   0.846
  190SOL    HW1  580   1.742   1.516   0.783
  190SOL    HW2  581   1.798   1.505   0.937
  191SOL     OW  582   0.213   1.310   1.851
  191SOL    HW1  583   0.141   1.318   1.782
  191SOL    HW2  584   0.172   1.281   1.938
  192SOL     OW  585   0.086   0.937   0.621
  192SOL    HW1  586   0.034   0.905   0.701
  192SOL    HW2  587   0.153   1.005   0.651
  193SOL     OW  588   0.671   1.436   1.591
  193SOL    HW1  589   0.597   1.379   1.626
  193SOL    HW2  590   0.677   1.519   1.646
  194SOL     OW  591   1.638   0.076   1.203
  194SOL    HW1  592   1.611  -0.018   1.185
  194SOL    HW2  593   1.716   0.100   1.146
  195SOL     OW  594   0.421   0.354   0.429
  195SOL    HW1  595   0.455   0.295   0.355
  195SOL    HW2  596   0.420   0.303   0.515
  196SOL     OW  597   1.751   1.459   1.101
  196SOL    HW1  598   1.662   1.431   1.138
  196SOL    HW2  599   1.824   1.416   1.153
  197SOL     OW  600   0.384   0.580   1.271
  197SOL    HW1  601   0.449   0.519   1.315
  197SOL    HW2  602   0.367   0.549   1.178
  198SOL     OW  603   0.761   1.653   0.691
  198SOL    HW1  604   0.776   1.739   0.642
  198SOL    HW2  605   0.708   1.590   0.634
  199SOL     OW  606   1.459   0.303   1.137
  199SOL    HW1  607   1.500   0.220   1.175
  199SOL    HW2  608   1.379   0.328   1.192
  200SOL     OW  609   0.956   0.006   1.156
  200SOL    HW1  610   0.889  -0.014   1.084
  200SOL    HW2  611   1.000  -0.079   1.185
  201SOL     OW  612   0.762   1.326   0.351
  201SOL    HW1  613   0.743   1.228   0.354
  201SOL    HW2  614   0.849   1.345   0.395
  202SOL     OW  615   0.489   1.580   1.236
  202SOL    HW1  616   0.517   1.622   1.322
  202SOL    HW2  617   0.533   1.627   1.159
  203SOL     OW  618   1.363   2.548   0.177
  203SOL    HW1  619   1.419   2.476   0.136
  203SOL    HW2  620   1.287   2.507   0.228
  204SOL     OW  621   1.219   0.421   0.675
  204SOL    HW1  622   1.177   0.511   0.659
  204SOL    HW2  623   1.243   0.412   0.771
  205SOL     OW  624   1.610   0.247   0.898
  205SOL    HW1  625   1.559   0.270   0.981
  205SOL    HW2  626   1.622   0.329   0.842
  206SOL     OW  627   0.065   0.963   0.340
  206SOL    HW1  628   0.156   0.928   0.319
  206SOL    HW2  629   0.050   0.961   0.439
  207SOL     OW  630   0.881   1.676   0.367
  207SOL    HW1  631   0.801   1.658   0.310
  207SOL    HW2  632   0.861   1.752   0.429
  208SOL     OW  633   0.249   0.672   2.082
  208SOL    HW1  634   0.186   0.613   2.132
  208SOL    HW2  635   0.205   0.705   1.999
  209SOL     OW  636   1.751   0.562   2.062
  209SOL    HW1  637   1.711   0.578   1.972
  209SOL    HW2  638   1.711   0.480   2.103
  210SOL     OW  639   1.705   0.630   0.014
  210SOL    HW1  640   1.710   0.636  -0.086
  210SOL    HW2  641   1.609   0.630   0.042
  211SOL     OW  642   0.143   1.723   2.329
  211SOL    HW1  643   0.107   1.806   2.372
  211SOL    HW2  644   0.233   1.743   2.289
  212SOL     OW  645   0.146   1.465   2.423
  212SOL    HW1  646   0.143   1.562   2.400
  212SOL    HW2  647   0.068   1.442   2.481
  213SOL     OW  648   0.572   0.994   2.051
  213SOL    HW1  649   0.593   1.056   1.975
  213SOL    HW2  650   0.628   1.019   2.130
  214SOL     OW  651   0.065   0.563   2.453
  214SOL    HW1  652   0.078   0.527   2.360
  214SOL    HW2  653   0.017   0.650   2.448
  215SOL     OW  654   1.875   1.700   2.150
  215SOL    HW1  655   1.967   1.716   2.187
  215SOL    HW2  656   1.830   1.788   2.134
  216SOL     OW  657   0.030   1.597   2.109
  216SOL    HW1  658  -0.043   1.531   2.129
  216SOL    HW2  659   0.063   1.637   2.194
  217SOL     OW  660   1.659   0.892   2.435
  217SOL    HW1  661   1.692   0.904   2.529
  217SOL    HW2  662   1.660   0.980   2.388
  218SOL     OW  663   1.688   1.139   2.313
  218SOL    HW1  664   1.777   1.112   2.275
  218SOL    HW2  665   1.702   1.206   2.386
  219SOL     OW  666   0.539   1.390   2.566
  219SOL    HW1  667   0.517   1.293   2.575
  219SOL    HW2  668   0.574   1.408   2.474
  220SOL     OW  669   0.860   0.011   2.335
  220SOL    HW1  670   0.904   0.100   2.328
  220SOL    HW2  671   0.762   0.022   2.347
  221SOL     OW  672   1.589   1.054   2.067
  221SOL    HW1  673   1.506   1.001   2.084
  221SOL    HW2  674   1.626   1.087   2.154
  222SOL     OW  675   1.411   1.407   0.173
  222SOL    HW1  676   1.352   1.390   0.252
  222SOL    HW2  677   1.437   1.319   0.131
  223SOL     OW  678   0.623   0.716   2.117
  223SOL    HW1  679   0.623   0.806   2.073
  223SOL    HW2  680   0.573   0.721   2.203
  224SOL     OW  681   1.475   0.338   0.155
  224SOL    HW1  682   1.420   0.291   0.085
  224SOL    HW2  683   1.476   0.283   0.239
  225SOL     OW  684   1.620   1.585   2.196
  225SOL    HW1  685   1.715   1.614   2.193
  225SOL    HW2  686   1.577   1.600   2.108
  226SOL     OW  687   1.033   0.665   2.292
  226SOL    HW1  688   1.050   0.650   2.390
  226SOL    HW2  689   0.948   0.619   2.266
  227SOL     OW  690   0.062   0.832   0.073
  227SOL    HW1  691   0.143   0.773   0.068
  227SOL    HW2  692   0.051   0.866   0.166
  228SOL     OW  693   0.915   0.337   2.029
  228SOL    HW1  694   0.945   0.420   1.983
  228SOL    HW2  695   0.971   0.260   1.999
  229SOL     OW  696   1.414   1.132   2.382
  229SOL    HW1  697   1.504   1.141   2.341
  229SOL    HW2  698   1.351   1.198   2.339
  230SOL     OW  699   1.022   1.457   2.328
  230SOL    HW1  700   0.986   1.540   2.285
  230SOL    HW2  701   1.052   1.478   2.421
  231SOL     OW  702   0.321   1.776   0.181
  231SOL    HW1  703   0.342   1.679   0.164
  231SOL    HW2  704   0.366   1.806   0.265
  232SOL     OW  705   1.747   0.952   0.105
  232SOL    HW1  706   1.655   0.934   0.141
  232SOL    HW2  707   1.799   1.005   0.171
  233SOL     OW  708   0.326   0.921   2.177
  233SOL    HW1  709   0.409   0.954   2.132
  233SOL    HW2  710   0.302   0.831   2.141
  234SOL     OW  711   1.163   1.749   2.094
  234SOL    HW1  712   1.075   1.731   2.137
  234SOL    HW2  713   1.187   1.673   2.033
  235SOL     OW  714   1.689   1.405   1.923
  235SOL    HW1  715   1.632   1.485   1.940
  235SOL    HW2  716   1.632   1.327   1.895
  236SOL     OW  717   0.389   1.765   2.211
  236SOL    HW1  718   0.462   1.809   2.263
  236SOL    HW2  719   0.421   1.677   2.177
  237SOL     OW  720   1.438   0.133   2.301
  237SOL    HW1  721   1.395   0.088   2.223
  237SOL    HW2  722   1.537   0.131   2.291
  238SOL     OW  723   0.478   0.718   2.350
  238SOL    HW1  724   0.475   0.620   2.370
  238SOL    HW2  725   0.386   0.752   2.338
  239SOL     OW  726   0.628   0.056   2.025
  239SOL    HW1  727   0.682  -0.027   2.037
  239SOL    HW2  728   0.606   0.067   1.928
  240SOL     OW  729   0.591   0.075   2.375
  240SOL    HW1  730   0.500   0.035   2.371
  240SOL    HW2  731   0.596   0.155   2.315
  241SOL     OW  732   1.482   1.225   1.884
  241SOL    HW1  733   1.523   1.157   1.945
  241SOL    HW2  734   1.393   1.253   1.920
  242SOL     OW  735   0.368   2.563   2.074
  242SOL    HW1  736   0.458   2.603   2.059
  242SOL    HW2  737   0.343   2.570   2.170
  243SOL     OW  738   0.982   0.255   2.287
  243SOL    HW1  739   0.943   0.284   2.199
  243SOL    HW2  740   1.079   0.276   2.289
  244SOL     OW  741   0.403   1.148   0.040
  244SOL    HW1  742   0.329   1.195   0.088
  244SOL    HW2  743   0.376   1.131  -0.055
  245SOL     OW  744   1.347   1.761   2.488
  245SOL    HW1  745   1.382   1.837   2.434
  245SOL    HW2  746   1.248   1.769   2.497
  246SOL     OW  747   1.024   0.539   1.882
  246SOL    HW1  748   0.983   0.624   1.849
  246SOL    HW2  749   1.094   0.560   1.950
  247SOL     OW  750   0.829   0.402   2.467
  247SOL    HW1  751   0.789   0.464   2.400
  247SOL    HW2  752   0.883   0.332   2.419
  248SOL     OW  753   2.036   0.784   2.182
  248SOL    HW1  754   2.037   0.749   2.276
  248SOL    HW2  755   2.030   0.707   2.118
  249SOL     OW  756   0.458   1.520   2.103
  249SOL    HW1  757   0.400   1.451   2.146
  249SOL    HW2  758   0.424   1.540   2.011
  250SOL     OW  759   1.373   0.589   1.880
  250SOL    HW1  760   1.328   0.571   1.967
  250SOL    HW2  761   1.472   0.582   1.891
  251SOL     OW  762   0.587   0.281   2.182
  251SOL    HW1  763   0.610   0.205   2.122
  251SOL    HW2  764   0.540   0.352   2.130
  252SOL     OW  765   0.743   1.061   2.259
  252SOL    HW1  766   0.697   1.025   2.341
  252SOL    HW2  767   0.828   1.011   2.244
  253SOL     OW  768   0.316   1.125   2.371
  253SOL    HW1  769   0.316   1.208   2.315
  253SOL    HW2  770   0.335   1.046   2.312
  254SOL     OW  771   1.263   1.336   2.273
  254SOL    HW1  772   1.329   1.404   2.308
  254SOL    HW2  773   1.170   1.368   2.290
  255SOL     OW  774   1.743   0.656   2.329
  255SOL    HW1  775   1.704   0.746   2.348
  255SOL    HW2  776   1.746   0.641   2.230
  256SOL     OW  777   1.199   0.557   2.097
  256SOL    HW1  778   1.222   0.469   2.139
  256SOL    HW2  779   1.150   0.613   2.162
  257SOL     OW  780   0.319   0.018   2.342
  257SOL    HW1  781   0.297   0.115   2.336
  257SOL    HW2  782   0.251  -0.029   2.399
  258SOL     OW  783   1.639   0.358   2.208
  258SOL    HW1  784   1.683   0.271   2.232
  258SOL    HW2  785   1.634   0.416   2.289
  259SOL     OW  786   1.472   0.268   1.998
  259SOL    HW1  787   1.407   0.201   2.034
  259SOL    HW2  788   1.526   0.306   2.074
  260SOL     OW  789   1.281   0.842   1.847
  260SOL    HW1  790   1.312   0.747   1.852
  260SOL    HW2  791   1.309   0.883   1.761
  261SOL     OW  792   0.044   1.245   2.067
  261SOL    HW1  793  -0.039   1.299   2.083
  261SOL    HW2  794   0.043   1.164   2.127
  262SOL     OW  795   0.804   0.536   2.216
  262SOL    HW1  796   0.809   0.457   2.154
  262SOL    HW2  797   0.741   0.603   2.178
  263SOL     OW  798   0.467   0.497   2.033
  263SOL    HW1  799   0.542   0.563   2.043
  263SOL    HW2  800   0.380   0.542   2.050
  264SOL     OW  801   1.355   0.927   2.101
  264SOL    HW1  802   1.278   0.923   2.164
  264SOL    HW2  803   1.325   0.897   2.010
  265SOL     OW  804   1.719   0.095   2.263
  265SOL    HW1  805   1.755   0.072   2.173
  265SOL    HW2  806   1.787   0.072   2.333
  266SOL     OW  807   1.431   1.524   2.383
  266SOL    HW1  808   1.504   1.536   2.316
  266SOL    HW2  809   1.402   1.613   2.418
  267SOL     OW  810   0.708   1.653   2.027
  267SOL    HW1  811   0.713   1.651   1.927
  267SOL    HW2  812   0.633   1.595   2.058
  268SOL     OW  813   1.871   0.127   0.259
  268SOL    HW1  814   1.860   0.030   0.235
  268SOL    HW2  815   1.824   0.183   0.191
  269SOL     OW  816   1.236   1.548   1.921
  269SOL    HW1  817   1.244   1.453   1.950
  269SOL    HW2  818   1.160   1.557   1.856
  270SOL     OW  819   0.968   0.921   2.203
  270SOL    HW1  820   0.997   0.927   2.108
  270SOL    HW2  821   0.996   0.833   2.241
  271SOL     OW  822   1.507   1.624   1.942
  271SOL    HW1  823   1.412   1.597   1.924
  271SOL    HW2  824   1.551   1.651   1.856
  272SOL     OW  825   0.641   1.472   2.318
  272SOL    HW1  826   0.711   1.417   2.272
  272SOL    HW2  827   0.569   1.496   2.253
  273SOL     OW  828   0.270   1.350   2.214
  273SOL    HW1  829   0.195   1.322   2.153
  273SOL    HW2  830   0.231   1.394   2.295
  274SOL     OW  831   0.093   0.378   1.809
  274SOL    HW1  832   0.016   0.351   1.751
  274SOL    HW2  833   0.135   0.460   1.773
  275SOL     OW  834   0.141   0.280   2.056
  275SOL    HW1  835   0.113   0.320   1.969
  275SOL    HW2  836   0.159   0.183   2.044
  276SOL     OW  837   1.243   1.286   2.003
  276SOL    HW1  838   1.163   1.229   1.982
  276SOL    HW2  839   1.251   1.296   2.103
  277SOL     OW  840   1.251   0.340   2.259
  277SOL    HW1  841   1.317   0.265   2.265
  277SOL    HW2  842   1.270   0.408   2.329
  278SOL     OW  843   0.615   0.931   2.464
  278SOL    HW1  844   0.608   0.932   2.564
  278SOL    HW2  845   0.570   0.849   2.428
  279SOL     OW  846   0.851   1.331   1.902
  279SOL    HW1  847   0.842   1.339   2.001
  279SOL    HW2  848   0.893   1.414   1.865
  280SOL     OW  849   1.049   0.939   1.943
  280SOL    HW1  850   1.029   1.022   1.891
  280SOL    HW2  851   1.133   0.897   1.910
  281SOL     OW  852   0.064   1.117   2.486
  281SOL    HW1  853   0.069   1.136   2.584
  281SOL    HW2  854   0.156   1.124   2.447
  282SOL     OW  855   0.479   0.448   2.391
  282SOL    HW1  856   0.537   0.384   2.340
  282SOL    HW2  857   0.493   0.435   2.489
  283SOL     OW  858   0.768   1.623   2.526
  283SOL    HW1  859   0.800   1.708   2.484
  283SOL    HW2  860   0.719   1.569   2.458
  284SOL     OW  861   0.827   1.317   2.184
  284SOL    HW1  862   0.800   1.225   2.212
  284SOL    HW2  863   0.904   1.348   2.240
  285SOL     OW  864   1.299   0.059   2.073
  285SOL    HW1  865   1.327  -0.015   2.012
  285SOL    HW2  866   1.227   0.026   2.135
  286SOL     OW  867   1.303   0.497   2.474
  286SOL    HW1  868   1.209   0.520   2.497
  286SOL    HW2  869   1.365   0.548   2.533
  287SOL     OW  870   0.061   1.013   2.216
  287SOL    HW1  871   0.154   0.979   2.205
  287SOL    HW2  872   0.039   1.019   2.314
  288SOL     OW  873   0.917   1.686   2.210
  288SOL    HW1  874   0.845   1.669   2.143
  288SOL    HW2  875   0.889   1.758   2.273
  289SOL     OW  876   0.133   2.204   1.085
  289SOL    HW1  877   0.179   2.137   1.143
  289SOL    HW2  878   0.036   2.204   1.105
  290SOL     OW  879   0.037   2.229   0.591
  290SOL    HW1  880  -0.061   2.216   0.573
  290SOL    HW2  881   0.091   2.181   0.522
  291SOL     OW  882   1.831   2.445   0.205
  291SOL    HW1  883   1.909   2.385   0.221
  291SOL    HW2  884   1.753   2.414   0.260
  292SOL     OW  885   0.464   2.319   1.513
  292SOL    HW1  886   0.550   2.327   1.564
  292SOL    HW2  887   0.472   2.246   1.445
  293SOL     OW  888   1.603   2.325   0.737
  293SOL    HW1  889   1.595   2.376   0.651
  293SOL    HW2  890   1.542   2.366   0.806
  294SOL     OW  891   1.687   1.984   1.512
  294SOL    HW1  892   1.716   2.074   1.481
  294SOL    HW2  893   1.618   1.995   1.584
  295SOL     OW  894   0.106   2.481   0.513
  295SOL    HW1  895   0.081   2.388   0.542
  295SOL    HW2  896   0.082   2.546   0.585
  296SOL     OW  897   0.240   0.062   1.604
  296SOL    HW1  898   0.276   0.020   1.520
  296SOL    HW2  899   0.247   0.162   1.596
  297SOL     OW  900   0.822   1.891   0.550
  297SOL    HW1  901   0.881   1.961   0.512
  297SOL    HW2  902   0.728   1.926   0.556
  298SOL     OW  903   0.351   2.133   1.850
  298SOL    HW1  904   0.414   2.198   1.892
  298SOL    HW2  905   0.258   2.167   1.856
  299SOL     OW  906   1.254   2.225   0.932
  299SOL    HW1  907   1.174   2.166   0.932
  299SOL    HW2  908   1.320   2.192   1.000
  300SOL     OW  909   0.843   2.359   1.404
  300SOL    HW1  910   0.802   2.343   1.494
  300SOL    HW2  911   0.772   2.352   1.334
  301SOL     OW  912   1.388   2.299   1.684
  301SOL    HW1  913   1.392   2.349   1.771
  301SOL    HW2  914   1.438   2.213   1.694
  302SOL     OW  915   1.010   2.319   1.187
  302SOL    HW1  916   0.947   2.319   1.264
  302SOL    HW2  917   0.960   2.296   1.103
  303SOL     OW  918   1.070   0.010   0.469
  303SOL    HW1  919   1.127   0.054   0.537
  303SOL    HW2  920   0.974   0.033   0.486
  304SOL     OW  921   0.072   0.049   0.744
  304SOL    HW1  922   0.140   0.046   0.817
  304SOL    HW2  923   0.054   0.144   0.718
  305SOL     OW  924   0.870   2.185   0.207
  305SOL    HW1  925   0.913   2.253   0.147
  305SOL    HW2  926   0.858   2.100   0.157
  306SOL     OW  927   1.672   2.584   1.661
  306SOL    HW1  928   1.608   2.585   1.583
  306SOL    HW2  929   1.695   2.489   1.683
  307SOL     OW  930   0.493   1.963   1.002
  307SOL    HW1  931   0.507   2.042   1.061
  307SOL    HW2  932   0.471   1.994   0.909
  308SOL     OW  933   1.463   0.065   0.749
  308SOL    HW1  934   1.442  -0.012   0.810
  308SOL    HW2  935   1.519   0.132   0.798
  309SOL     OW  936   0.160   2.100   1.529
  309SOL    HW1  937   0.195   2.175   1.585
  309SOL    HW2  938   0.158   2.016   1.583
  310SOL     OW  939   1.367   1.939   0.479
  310SOL    HW1  940   1.344   1.896   0.392
  310SOL    HW2  941   1.465   1.932   0.495
  311SOL     OW  942   1.506   2.051   1.717
  311SOL    HW1  943   1.526   2.049   1.815
  311SOL    HW2  944   1.435   1.983   1.697
  312SOL     OW  945   0.611   1.961   0.180
  312SOL    HW1  946   0.705   1.943   0.150
  312SOL    HW2  947   0.549   1.957   0.101
  313SOL     OW  948   0.766   2.061   1.729
  313SOL    HW1  949   0.861   2.031   1.742
  313SOL    HW2  950   0.710   2.029   1.805
  314SOL     OW  951   1.308   2.443   1.470
  314SOL    HW1  952   1.338   2.390   1.549
  314SOL    HW2  953   1.372   2.519   1.455
  315SOL     OW  954   0.909   2.282   0.884
  315SOL    HW1  955   0.903   2.297   0.785
  315SOL    HW2  956   0.950   2.193   0.901
  316SOL     OW  957   0.566   1.995   0.547
  316SOL    HW1  958   0.505   2.002   0.626
  316SOL    HW2  959   0.543   2.066   0.481
  317SOL     OW  960   0.967   2.098   0.446
  317SOL    HW1  961   0.926   2.128   0.361
  317SOL    HW2  962   1.066   2.117   0.444
  318SOL     OW  963   1.040   2.503   1.544
  318SOL    HW1  964   0.975   2.456   1.484
  318SOL    HW2  965   1.134   2.486   1.512
  319SOL     OW  966   1.030   2.366   0.072
  319SOL    HW1  967   1.093   2.306   0.022
  319SOL    HW2  968   1.070   2.389   0.161
  320SOL     OW  969   0.025   2.396   1.422
  320SOL    HW1  970   0.098   2.400   1.491
  320SOL    HW2  971  -0.033   2.316   1.440
  321SOL     OW  972   0.496   2.114   1.323
  321SOL    HW1  973   0.557   2.051   1.370
  321SOL    HW2  974   0.410   2.067   1.303
  322SOL     OW  975   0.921   2.321   0.608
  322SOL    HW1  976   0.888   2.391   0.544
  322SOL    HW2  977   0.926   2.233   0.561
  323SOL     OW  978   1.019   1.833   0.750
  323SOL    HW1  979   0.951   1.852   0.679
  323SOL    HW2  980   0.980   1.772   0.818
  324SOL     OW  981   1.430   2.442   0.916
  324SOL    HW1  982   1.351   2.380   0.921
  324SOL    HW2  983   1.480   2.437   1.003
  325SOL     OW  984   1.480   2.329   0.062
  325SOL    HW1  985   1.450   2.249   0.114
  325SOL    HW2  986   1.574   2.315   0.031
  326SOL     OW  987   0.481   2.149   0.327
  326SOL    HW1  988   0.529   2.076   0.278
  326SOL    HW2  989   0.490   2.235   0.276
  327SOL     OW  990   0.939   1.889   1.387
  327SOL    HW1  991   0.955   1.871   1.290
  327SOL    HW2  992   1.015   1.944   1.422
  328SOL     OW  993   1.249   2.241   1.293
  328SOL    HW1  994   1.275   2.315   1.355
  328SOL    HW2  995   1.164   2.266   1.246
  329SOL     OW  996   0.542   2.445   1.005
  329SOL    HW1  997   0.498   2.425   0.917
  329SOL    HW2  998   0.630   2.488   0.989
  330SOL     OW  999   1.604   2.539   0.542
  330SOL    HW1 1000   1.548   2.585   0.611
  330SOL    HW2 1001   1.701   2.555   0.562
  331SOL     OW 1002   1.016   1.981   1.807
  331SOL    HW1 1003   1.070   2.054   1.766
  331SOL    HW2 1004   1.073   1.900   1.819
  332SOL     OW 1005   0.494   1.910   1.765
  332SOL    HW1 1006   0.439   1.844   1.714
  332SOL    HW2 1007   0.442   1.995   1.777
  333SOL     OW 1008   1.165   2.409   0.306
  333SOL    HW1 1009   1.190   2.330   0.362
  333SOL    HW2 1010   1.125   2.479   0.365
  334SOL     OW 1011   0.232   2.021   1.273
  334SOL    HW1 1012   0.205   2.050   1.365
  334SOL    HW2 1013   0.187   1.935   1.251
  335SOL     OW 1014   0.802   2.525   0.942
  335SOL    HW1 1015   0.834   2.432   0.924
  335SOL    HW2 1016   0.844   2.589   0.877
  336SOL     OW 1017   0.380   2.003   0.751
  336SOL    HW1 1018   0.319   2.081   0.764
  336SOL    HW2 1019   0.329   1.918   0.761
  337SOL     OW 1020   1.644   2.325   0.370
  337SOL    HW1 1021   1.696   2.260   0.425
  337SOL    HW2 1022   1.616   2.402   0.427
  338SOL     OW 1023   1.600   2.097   0.220
  338SOL    HW1 1024   1.502   2.078   0.210
  338SOL    HW2 1025   1.612   2.183   0.270
  339SOL     OW 1026   0.257   0.078   0.948
  339SOL    HW1 1027   0.342   0.129   0.935
  339SOL    HW2 1028   0.275  -0.005   1.001
  340SOL     OW 1029   0.286   2.440   1.114
  340SOL    HW1 1030   0.239   2.353   1.098
  340SOL    HW2 1031   0.380   2.434   1.081
  341SOL     OW 1032   1.134   2.201   1.694
  341SOL    HW1 1033   1.081   2.262   1.752
  341SOL    HW2 1034   1.227   2.236   1.684
  342SOL     OW 1035   1.151   2.044   1.471
  342SOL    HW1 1036   1.133   2.101   1.551
  342SOL    HW2 1037   1.191   2.100   1.398
  343SOL     OW 1038   0.019   2.521   1.178
  343SOL    HW1 1039   0.114   2.512   1.148
  343SOL    HW2 1040   0.009   2.479   1.268
  344SOL     OW 1041   0.222   2.372   1.640
  344SOL    HW1 1042   0.313   2.347   1.606
  344SOL    HW2 1043   0.216   2.471   1.649
  345SOL     OW 1044   0.814   2.434   0.354
  345SOL    HW1 1045   0.803   2.348   0.305
  345SOL    HW2 1046   0.725   2.478   0.365
  346SOL     OW 1047   1.587   2.398   1.136
  346SOL    HW1 1048   1.545   2.310   1.161
  346SOL    HW2 1049   1.683   2.383   1.111
  347SOL     OW 1050   0.654   2.314   1.219
  347SOL    HW1 1051   0.595   2.240   1.250
  347SOL    HW2 1052   0.612   2.360   1.141
  348SOL     OW 1053   0.494   2.373   0.150
  348SOL    HW1 1054   0.542   2.456   0.123
  348SOL    HW2 1055   0.401   2.396   0.181
  349SOL     OW 1056   0.871   1.931   0.078
  349SOL    HW1 1057   0.859   1.921  -0.021
  349SOL    HW2 1058   0.936   1.863   0.111
  350SOL     OW 1059   1.785   2.106   0.472
  350SOL    HW1 1060   1.837   2.079   0.391
  350SOL    HW2 1061   1.725   2.030   0.499
  351SOL     OW 1062   1.207   0.143   0.668
  351SOL    HW1 1063   1.297   0.109   0.693
  351SOL    HW2 1064   1.207   0.243   0.669
  352SOL     OW 1065   1.868   2.041   0.950
  352SOL    HW1 1066   1.890   1.947   0.925
  352SOL    HW2 1067   1.774   2.062   0.922
  353SOL     OW 1068   0.207   2.209   0.809
  353SOL    HW1 1069   0.134   2.220   0.741
  353SOL    HW2 1070   0.168   2.210   0.901
  354SOL     OW 1071   1.044   2.046   0.930
  354SOL    HW1 1072   1.047   1.981   0.853
  354SOL    HW2 1073   1.027   1.995   1.015
  355SOL     OW 1074   1.802   2.234   1.417
  355SOL    HW1 1075   1.838   2.323   1.388
  355SOL    HW2 1076   1.802   2.171   1.339
  356SOL     OW 1077   0.686   1.970   1.474
  356SOL    HW1 1078   0.774   1.945   1.432
  356SOL    HW2 1079   0.702   2.007   1.565
  357SOL     OW 1080   2.532   2.290   2.539
  357SOL    HW1 1081   2.460   2.328   2.597
  357SOL    HW2 1082   2.542   2.346   2.456
  358SOL     OW 1083   0.104   2.181   0.145
  358SOL    HW1 1084   0.052   2.224   0.072
  358SOL    HW2 1085   0.095   2.081   0.138
  359SOL     OW 1086   0.712   2.318   1.645
  359SOL    HW1 1087   0.739   2.385   1.714
  359SOL    HW2 1088   0.733   2.226   1.678
  360SOL     OW 1089   1.237   2.176   0.449
  360SOL    HW1 1090   1.286   2.091   0.470
  360SOL    HW2 1091   1.231   2.232   0.532
  361SOL     OW 1092   1.745   2.314   1.676
  361SOL    HW1 1093   1.759   2.282   1.582
  361SOL    HW2 1094   1.689   2.248   1.726
  362SOL     OW 1095   1.105   0.205   0.118
  362SOL    HW1 1096   1.105   0.297   0.158
  362SOL    HW2 1097   1.183   0.196   0.056
  363SOL     OW 1098   1.832   2.054   1.223
  363SOL    HW1 1099   1.848   1.961   1.257
  363SOL    HW2 1100   1.847   2.056   1.124
  364SOL     OW 1101   0.408   2.396   0.779
  364SOL    HW1 1102   0.403   2.447   0.693
  364SOL    HW2 1103   0.336   2.327   0.781
  365SOL     OW 1104   0.344   2.530   1.376
  365SOL    HW1 1105   0.399   2.461   1.423
  365SOL    HW2 1106   0.317   2.496   1.286
  366SOL     OW 1107   1.440   2.143   1.126
  366SOL    HW1 1108   1.454   2.044   1.134
  366SOL    HW2 1109   1.374   2.173   1.195
  367SOL     OW 1110   1.005   1.844   1.121
  367SOL    HW1 1111   0.947   1.786   1.064
  367SOL    HW2 1112   1.100   1.815   1.111
  368SOL     OW 1113   1.284   1.839   0.236
  368SOL    HW1 1114   1.354   1.777   0.201
  368SOL    HW2 1115   1.193   1.803   0.212
  369SOL     OW 1116   1.196   2.315   0.674
  369SOL    HW1 1117   1.100   2.341   0.666
  369SOL    HW2 1118   1.216   2.290   0.768
  370SOL     OW 1119   1.604   2.098   0.899
  370SOL    HW1 1120   1.552   2.131   0.977
  370SOL    HW2 1121   1.601   2.166   0.826
  371SOL     OW 1122   1.214   2.534   2.523
  371SOL    HW1 1123   1.271   2.572   2.596
  371SOL    HW2 1124   1.129   2.498   2.561
  372SOL     OW 1125   1.630   2.439   2.020
  372SOL    HW1 1126   1.714   2.492   2.019
  372SOL    HW2 1127   1.639   2.363   2.085
  373SOL     OW 1128   1.745   2.328   2.559
  373SOL    HW1 1129   1.702   2.386   2.490
  373SOL    HW2 1130   1.780   2.386   2.634
  374SOL     OW 1131   2.516   2.501   2.349
  374SOL    HW1 1132   2.424   2.536   2.338
  374SOL    HW2 1133   2.569   2.562   2.407
  375SOL     OW 1134   0.834   1.882   2.392
  375SOL    HW1 1135   0.879   1.963   2.356
  375SOL    HW2 1136   0.735   1.890   2.377
  376SOL     OW 1137   1.324   2.104   0.194
  376SOL    HW1 1138   1.305   2.006   0.197
  376SOL    HW2 1139   1.290   2.147   0.277
  377SOL     OW 1140   1.127   2.544   2.265
  377SOL    HW1 1141   1.169   2.545   2.355
  377SOL    HW2 1142   1.028   2.557   2.274
  378SOL     OW 1143   0.059   0.087   2.515
  378SOL    HW1 1144   0.129   0.076   2.585
  378SOL    HW2 1145   0.022   0.179   2.518
  379SOL     OW 1146   0.893   2.158   2.016
  379SOL    HW1 1147   0.944   2.226   1.964
  379SOL    HW2 1148   0.897   2.070   1.970
  380SOL     OW 1149   1.443   1.957   2.323
  380SOL    HW1 1150   1.440   1.914   2.233
  380SOL    HW2 1151   1.537   1.983   2.344
  381SOL     OW 1152   0.666   1.927   1.969
  381SOL    HW1 1153   0.697   1.839   2.005
  381SOL    HW2 1154   0.597   1.911   1.898
  382SOL     OW 1155   0.571   1.915   2.350
  382SOL    HW1 1156   0.519   1.930   2.434
  382SOL    HW2 1157   0.551   1.988   2.285
  383SOL     OW 1158   0.270   1.922   2.021
  383SOL    HW1 1159   0.331   1.983   1.970
  383SOL    HW2 1160   0.322   1.871   2.089
  384SOL     OW 1161   0.941   2.113   2.283
  384SOL    HW1 1162   0.915   2.126   2.187
  384SOL    HW2 1163   1.041   2.113   2.291
  385SOL     OW 1164   1.020   2.358   1.886
  385SOL    HW1 1165   0.985   2.447   1.858
  385SOL    HW2 1166   1.087   2.371   1.960
  386SOL     OW 1167   0.761   2.326   2.358
  386SOL    HW1 1168   0.813   2.409   2.379
  386SOL    HW2 1169   0.823   2.248   2.351
  387SOL     OW 1170   1.379   2.426   1.928
  387SOL    HW1 1171   1.324   2.373   1.993
  387SOL    HW2 1172   1.474   2.430   1.959
  388SOL     OW 1173   0.521   2.081   2.142
  388SOL    HW1 1174   0.584   2.034   2.081
  388SOL    HW2 1175   0.499   2.171   2.104
  389SOL     OW 1176   1.587   2.463   2.376
  389SOL    HW1 1177   1.502   2.495   2.418
  389SOL    HW2 1178   1.634   2.540   2.333
  390SOL     OW 1179   1.197   2.332   2.111
  390SOL    HW1 1180   1.206   2.247   2.163
  390SOL    HW2 1181   1.167   2.406   2.171
  391SOL     OW 1182   0.418   1.945   2.572
  391SOL    HW1 1183   0.353   2.008   2.529
  391SOL    HW2 1184   0.369   1.884   2.633
  392SOL     OW 1185   1.606   2.243   2.211
  392SOL    HW1 1186   1.646   2.167   2.262
  392SOL    HW2 1187   1.589   2.319   2.273
  393SOL     OW 1188   1.554   2.071   1.990
  393SOL    HW1 1189   1.494   1.998   2.021
  393SOL    HW2 1190   1.560   2.142   2.060
  394SOL     OW 1191   0.731   2.377   2.085
  394SOL    HW1 1192   0.786   2.302   2.051
  394SOL    HW2 1193   0.728   2.374   2.185
  395SOL     OW 1194   0.480   2.318   2.003
  395SOL    HW1 1195   0.574   2.342   2.024
  395SOL    HW2 1196   0.420   2.396   2.022
  396SOL     OW 1197   1.713   2.030   2.346
  396SOL    HW1 1198   1.751   1.991   2.262
  396SOL    HW2 1199   1.786   2.046   2.411
  397SOL     OW 1200   1.330   0.232   2.541
  397SOL    HW1 1201   1.364   0.179   2.463
  397SOL    HW2 1202   1.316   0.327   2.513
  398SOL     OW 1203   1.854   2.008   0.193
  398SOL    HW1 1204   1.885   2.027   0.099
  398SOL    HW2 1205   1.756   2.030   0.201
  399SOL     OW 1206   0.121   2.286   1.908
  399SOL    HW1 1207   0.057   2.342   1.962
  399SOL    HW2 1208   0.140   2.333   1.822
  400SOL     OW 1209   0.152   2.133   2.146
  400SOL    HW1 1210   0.148   2.203   2.075
  400SOL    HW2 1211   0.197   2.052   2.109
  401SOL     OW 1212   1.219   2.127   2.300
  401SOL    HW1 1213   1.295   2.062   2.293
  401SOL    HW2 1214   1.217   2.167   2.391
  402SOL     OW 1215   1.100   0.173   1.906
  402SOL    HW1 1216   1.122   0.233   1.830
  402SOL    HW2 1217   1.183   0.149   1.955
  403SOL     OW 1218   0.500   2.266   2.472
  403SOL    HW1 1219   0.588   2.286   2.428
  403SOL    HW2 1220   0.503   2.294   2.568
  404SOL     OW 1221   1.413   1.854   2.073
  404SOL    HW1 1222   1.460   1.778   2.027
  404SOL    HW2 1223   1.316   1.831   2.083
  405SOL     OW 1224   1.235   2.224   2.552
  405SOL    HW1 1225   1.302   2.297   2.546
  405SOL    HW2 1226   1.257   2.164   2.628
  406SOL     OW 1227   2.083   0.497   0.179
  406SOL    HW1 1228   2.017   0.564   0.212
  406SOL    HW2 1229   2.051   0.458   0.093
  407SOL     OW 1230   2.033   0.324   1.117
  407SOL    HW1 1231   2.100   0.276   1.173
  407SOL    HW2 1232   1.968   0.259   1.078
  408SOL     OW 1233   1.892   0.435   0.687
  408SOL    HW1 1234   1.803   0.457   0.727
  408SOL    HW2 1235   1.881   0.361   0.620
  409SOL     OW 1236   2.466   1.179   1.143
  409SOL    HW1 1237   2.398   1.247   1.114
  409SOL    HW2 1238   2.486   1.191   1.240
  410SOL     OW 1239   0.089   0.758   1.874
  410SOL    HW1 1240   0.005   0.774   1.926
  410SOL    HW2 1241   0.105   0.835   1.811
  411SOL     OW 1242   2.535   1.075   1.857
  411SOL    HW1 1243   2.567   1.150   1.915
  411SOL    HW2 1244   2.463   1.109   1.796
  412SOL     OW 1245   2.269   1.367   1.076
  412SOL    HW1 1246   2.188   1.320   1.041
  412SOL    HW2 1247   2.300   1.435   1.010
  413SOL     OW 1248   2.337   0.527   1.592
  413SOL    HW1 1249   2.391   0.447   1.618
  413SOL    HW2 1250   2.332   0.533   1.492
  414SOL     OW 1251   2.093   1.721   0.462
  414SOL    HW1 1252   2.108   1.782   0.540
  414SOL    HW2 1253   2.176   1.718   0.406
  415SOL     OW 1254   2.059   1.444   0.462
  415SOL    HW1 1255   2.065   1.544   0.469
  415SOL    HW2 1256   2.031   1.406   0.550
  416SOL     OW 1257   2.146   1.069   0.842
  416SOL    HW1 1258   2.158   0.973   0.868
  416SOL    HW2 1259   2.117   1.122   0.922
  417SOL     OW 1260   2.491   1.760   1.497
  417SOL    HW1 1261   2.397   1.769   1.529
  417SOL    HW2 1262   2.500   1.805   1.408
  418SOL     OW 1263   2.401   0.980   0.217
  418SOL    HW1 1264   2.399   1.049   0.144
  418SOL    HW2 1265   2.485   0.990   0.270
  419SOL     OW 1266   1.990   0.691   0.629
  419SOL    HW1 1267   1.960   0.597   0.644
  419SOL    HW2 1268   1.974   0.745   0.712
  420SOL     OW 1269   1.978   1.545   0.106
  420SOL    HW1 1270   1.944   1.452   0.121
  420SOL    HW2 1271   1.929   1.608   0.166
  421SOL     OW 1272   1.983   0.758   1.596
  421SOL    HW1 1273   2.025   0.823   1.659
  421SOL    HW2 1274   1.903   0.800   1.552
  422SOL     OW 1275   2.404   1.408   0.695
  422SOL    HW1 1276   2.367   1.317   0.678
  422SOL    HW2 1277   2.424   1.453   0.608
  423SOL     OW 1278   2.124   1.054   1.286
  423SOL    HW1 1279   2.180   0.972   1.287
  423SOL    HW2 1280   2.107   1.083   1.192
  424SOL     OW 1281   2.147   0.216   1.927
  424SOL    HW1 1282   2.189   0.295   1.972
  424SOL    HW2 1283   2.070   0.247   1.870
  425SOL     OW 1284   2.425   0.711   0.290
  425SOL    HW1 1285   2.424   0.802   0.248
  425SOL    HW2 1286   2.356   0.707   0.362
  426SOL     OW 1287   1.923   0.845   0.850
  426SOL    HW1 1288   2.009   0.825   0.898
  426SOL    HW2 1289   1.885   0.931   0.884
  427SOL     OW 1290   2.011   1.880   1.551
  427SOL    HW1 1291   1.967   1.868   1.640
  427SOL    HW2 1292   1.948   1.853   1.478
  428SOL     OW 1293   2.292   0.269   0.937
  428SOL    HW1 1294   2.338   0.203   0.997
  428SOL    HW2 1295   2.342   0.356   0.939
  429SOL     OW 1296   2.216   1.791   0.927
  429SOL    HW1 1297   2.267   1.706   0.915
  429SOL    HW2 1298   2.280   1.867   0.938
  430SOL     OW 1299   2.153   0.878   0.269
  430SOL    HW1 1300   2.243   0.912   0.241
  430SOL    HW2 1301   2.165   0.803   0.334
  431SOL     OW 1302   2.337   1.209   1.705
  431SOL    HW1 1303   2.305   1.215   1.610
  431SOL    HW2 1304   2.261   1.231   1.767
  432SOL     OW 1305   2.041   0.292   1.502
  432SOL    HW1 1306   2.039   0.384   1.464
  432SOL    HW2 1307   2.030   0.296   1.601
  433SOL     OW 1308   2.331   1.732   0.326
  433SOL    HW1 1309   2.368   1.812   0.374
  433SOL    HW2 1310   2.393   1.705   0.253
  434SOL     OW 1311   2.206   1.776   1.210
  434SOL    HW1 1312   2.234   1.687   1.246
  434SOL    HW2 1313   2.203   1.772   1.110
  435SOL     OW 1314   2.218   0.692   0.473
  435SOL    HW1 1315   2.276   0.620   0.511
  435SOL    HW2 1316   2.134   0.701   0.526
  436SOL     OW 1317   0.072   1.425   0.790
  436SOL    HW1 1318   0.125   1.430   0.706
  436SOL    HW2 1319  -0.023   1.403   0.769
  437SOL     OW 1320   2.314   0.063   0.460
  437SOL    HW1 1321   2.235   0.060   0.522
  437SOL    HW2 1322   2.334   0.158   0.436
  438SOL     OW 1323   2.290   0.101   0.122
  438SOL    HW1 1324   2.231   0.147   0.188
  438SOL    HW2 1325   2.382   0.091   0.159
  439SOL     OW 1326   0.150   0.382   0.429
  439SOL    HW1 1327   0.112   0.327   0.354
  439SOL    HW2 1328   0.250   0.378   0.425
  440SOL     OW 1329   2.301   1.165   0.637
  440SOL    HW1 1330   2.256   1.123   0.716
  440SOL    HW2 1331   2.254   1.138   0.553
  441SOL     OW 1332   2.048   0.557   1.420
  441SOL    HW1 1333   2.142   0.567   1.388
  441SOL    HW2 1334   2.026   0.633   1.481
  442SOL     OW 1335   2.416   0.127   1.128
  442SOL    HW1 1336   2.485   0.060   1.155
  442SOL    HW2 1337   2.355   0.145   1.205
  443SOL     OW 1338   2.442   1.349   0.239
  443SOL    HW1 1339   2.345   1.326   0.242
  443SOL    HW2 1340   2.461   1.400   0.155
  444SOL     OW 1341   2.419   0.311   0.377
  444SOL    HW1 1342   2.504   0.270   0.342
  444SOL    HW2 1343   2.376   0.364   0.304
  445SOL     OW 1344   2.304   0.839   1.295
  445SOL    HW1 1345   2.358   0.883   1.366
  445SOL    HW2 1346   2.307   0.740   1.307
  446SOL     OW 1347   1.996   1.573   1.395
  446SOL    HW1 1348   1.955   1.662   1.376
  446SOL    HW2 1349   2.095   1.578   1.384
  447SOL     OW 1350   2.128   1.108   0.419
  447SOL    HW1 1351   2.158   1.182   0.358
  447SOL    HW2 1352   2.137   1.020   0.373
  448SOL     OW 1353   2.433   0.499   0.983
  448SOL    HW1 1354   2.492   0.522   0.906
  448SOL    HW2 1355   2.488   0.489   1.066
  449SOL     OW 1356   2.271   1.514   1.306
  449SOL    HW1 1357   2.265   1.460   1.222
  449SOL    HW2 1358   2.366   1.516   1.338
  450SOL     OW 1359   2.347   0.795   1.671
  450SOL    HW1 1360   2.392   0.854   1.604
  450SOL    HW2 1361   2.359   0.699   1.645
  451SOL     OW 1362   2.318   0.099   1.750
  451SOL    HW1 1363   2.271   0.026   1.701
  451SOL    HW2 1364   2.256   0.142   1.815
  452SOL     OW 1365   2.414   0.921   1.057
  452SOL    HW1 1366   2.438   1.017   1.071
  452SOL    HW2 1367   2.383   0.882   1.143
  453SOL     OW 1368   2.191   0.181   1.295
  453SOL    HW1 1369   2.146   0.214   1.378
  453SOL    HW2 1370   2.185   0.081   1.291
  454SOL     OW 1371   1.936   1.341   1.266
  454SOL    HW1 1372   1.918   1.268   1.333
  454SOL    HW2 1373   1.960   1.425   1.315
  455SOL     OW 1374   2.105   0.099   0.648
  455SOL    HW1 1375   2.128   0.196   0.640
  455SOL    HW2 1376   2.105   0.073   0.745
  456SOL     OW 1377   2.130   0.908   1.780
  456SOL    HW1 1378   2.147   0.927   1.877
  456SOL    HW2 1379   2.212   0.869   1.739
  457SOL     OW 1380   2.172   0.816   0.967
  457SOL    HW1 1381   2.263   0.853   0.989
  457SOL    HW2 1382   2.163   0.725   1.005
  458SOL     OW 1383   2.181   0.557   1.070
  458SOL    HW1 1384   2.123   0.476   1.074
  458SOL    HW2 1385   2.268   0.535   1.026
  459SOL     OW 1386   1.901   1.283   0.126
  459SOL    HW1 1387   1.833   1.286   0.053
  459SOL    HW2 1388   1.875   1.214   0.194
  460SOL     OW 1389   1.935   1.779   0.916
  460SOL    HW1 1390   1.902   1.694   0.876
  460SOL    HW2 1391   2.035   1.778   0.919
  461SOL     OW 1392   2.370   1.567   0.912
  461SOL    HW1 1393   2.460   1.608   0.932
  461SOL    HW2 1394   2.377   1.513   0.829
  462SOL     OW 1395   1.851   0.483   1.241
  462SOL    HW1 1396   1.911   0.430   1.181
  462SOL    HW2 1397   1.906   0.530   1.310
  463SOL     OW 1398   2.096   0.558   1.743
  463SOL    HW1 1399   2.189   0.546   1.707
  463SOL    HW2 1400   2.050   0.631   1.693
  464SOL     OW 1401   0.092   0.611   0.286
  464SOL    HW1 1402   0.107   0.542   0.357
  464SOL    HW2 1403  -0.000   0.648   0.294
  465SOL     OW 1404   2.138   1.556   1.766
  465SOL    HW1 1405   2.059   1.582   1.822
  465SOL    HW2 1406   2.150   1.457   1.771
  466SOL     OW 1407   2.355   0.478   0.165
  466SOL    HW1 1408   2.391   0.564   0.201
  466SOL    HW2 1409   2.255   0.483   0.162
  467SOL     OW 1410   1.904   1.121   1.438
  467SOL    HW1 1411   1.926   1.120   1.535
  467SOL    HW2 1412   1.983   1.089   1.385
  468SOL     OW 1413   2.030   1.198   1.055
  468SOL    HW1 1414   2.001   1.257   1.130
  468SOL    HW2 1415   1.950   1.159   1.011
  469SOL     OW 1416   2.524   1.602   1.736
  469SOL    HW1 1417   2.574   1.659   1.801
  469SOL    HW2 1418   2.494   1.658   1.659
  470SOL     OW 1419   1.898   1.829   1.792
  470SOL    HW1 1420   1.891   1.735   1.826
  470SOL    HW2 1421   1.948   1.885   1.858
  471SOL     OW 1422   2.161   0.366   0.713
  471SOL    HW1 1423   2.067   0.397   0.723
  471SOL    HW2 1424   2.195   0.332   0.800
  472SOL     OW 1425   2.219   1.254   1.460
  472SOL    HW1 1426   2.224   1.342   1.412
  472SOL    HW2 1427   2.191   1.183   1.396
  473SOL     OW 1428   2.468   1.516   0.453
  473SOL    HW1 1429   2.464   1.448   0.379
  473SOL    HW2 1430   2.421   1.599   0.423
  474SOL     OW 1431   2.167   1.315   0.250
  474SOL    HW1 1432   2.099   1.307   0.177
  474SOL    HW2 1433   2.132   1.374   0.322
  475SOL     OW 1434   1.952   1.093   1.701
  475SOL    HW1 1435   1.869   1.073   1.754
  475SOL    HW2 1436   2.024   1.029   1.726
  476SOL     OW 1437   2.480   0.290   1.636
  476SOL    HW1 1438   2.525   0.251   1.555
  476SOL    HW2 1439   2.420   0.222   1.677
  477SOL     OW 1440   1.969   0.395   2.544
  477SOL    HW1 1441   1.881   0.378   2.589
  477SOL    HW2 1442   1.965   0.481   2.494
  478SOL     OW 1443   2.462   0.958   1.477
  478SOL    HW1 1444   2.474   1.056   1.464
  478SOL    HW2 1445   2.552   0.914   1.478
  479SOL     OW 1446   2.248   1.765   1.620
  479SOL    HW1 1447   2.164   1.808   1.585
  479SOL    HW2 1448   2.223   1.686   1.676
  480SOL     OW 1449   2.570   0.569   0.750
  480SOL    HW1 1450   2.569   0.663   0.782
  480SOL    HW2 1451   2.495   0.554   0.686
  481SOL     OW 1452   2.100   1.285   1.830
  481SOL    HW1 1453   2.050   1.224   1.769
  481SOL    HW2 1454   2.049   1.295   1.916
  482SOL     OW 1455   1.983   1.182   0.643
  482SOL    HW1 1456   2.035   1.145   0.720
  482SOL    HW2 1457   2.030   1.161   0.558
  483SOL     OW 1458   2.578   1.340   1.704
  483SOL    HW1 1459   2.492   1.291   1.693
  483SOL    HW2 1460   2.560   1.439   1.711
  484SOL     OW 1461   2.366   0.487   0.581
  484SOL    HW1 1462   2.398   0.424   0.510
  484SOL    HW2 1463   2.291   0.445   0.632
  485SOL     OW 1464   2.316   0.558   1.310
  485SOL    HW1 1465   2.405   0.518   1.290
  485SOL    HW2 1466   2.260   0.557   1.227
  486SOL     OW 1467   1.866   1.075   0.324
  486SOL    HW1 1468   1.953   1.114   0.354
  486SOL    HW2 1469   1.854   0.984   0.364
  487SOL     OW 1470   2.019   0.575   2.009
  487SOL    HW1 1471   1.921   0.566   2.022
  487SOL    HW2 1472   2.040   0.579   1.911
  488SOL     OW 1473   2.120   0.241   0.278
  488SOL    HW1 1474   2.105   0.338   0.259
  488SOL    HW2 1475   2.032   0.194   0.280
  489SOL     OW 1476   2.122   1.816   2.219
  489SOL    HW1 1477   2.099   1.851   2.310
  489SOL    HW2 1478   2.219   1.792   2.216
  490SOL     OW 1479   2.082   1.387   2.452
  490SOL    HW1 1480   2.053   1.452   2.522
  490SOL    HW2 1481   2.093   1.297   2.493
  491SOL     OW 1482   2.483   0.881   2.044
  491SOL    HW1 1483   2.490   0.944   1.966
  491SOL    HW2 1484   2.537   0.916   2.120
  492SOL     OW 1485   1.997   0.671   2.438
  492SOL    HW1 1486   1.903   0.665   2.403
  492SOL    HW2 1487   2.002   0.742   2.508
  493SOL     OW 1488   1.899   1.580   1.906
  493SOL    HW1 1489   1.828   1.511   1.900
  493SOL    HW2 1490   1.902   1.618   1.998
  494SOL     OW 1491   2.490   1.426   2.563
  494SOL    HW1 1492   2.458   1.332   2.568
  494SOL    HW2 1493   2.454   1.469   2.479
  495SOL     OW 1494   2.412   0.635   2.151
  495SOL    HW1 1495   2.438   0.723   2.113
  495SOL    HW2 1496   2.369   0.648   2.240
  496SOL     OW 1497   2.005   0.878   0.031
  496SOL    HW1 1498   2.056   0.870   0.117
  496SOL    HW2 1499   1.908   0.894   0.052
  497SOL     OW 1500   2.150   1.760   0.100
  497SOL    HW1 1501   2.099   1.673   0.098
  497SOL    HW2 1502   2.216   1.757   0.175
  498SOL     OW 1503   2.211   0.938   2.043
  498SOL    HW1 1504   2.305   0.904   2.046
  498SOL    HW2 1505   2.152   0.877   2.095
  499SOL     OW 1506   2.397   1.805   2.267
  499SOL    HW1 1507   2.390   1.851   2.356
  499SOL    HW2 1508   2.440   1.866   2.201
  500SOL     OW 1509   2.276   0.641   2.397
  500SOL    HW1 1510   2.302   0.544   2.398
  500SOL    HW2 1511   2.178   0.649   2.419
  501SOL     OW 1512   2.511   0.081   1.947
  501SOL    HW1 1513   2.605   0.074   1.913
  501SOL    HW2 1514   2.448   0.083   1.869
  502SOL     OW 1515   2.274   0.046   2.306
  502SOL    HW1 1516   2.218   0.087   2.378
  502SOL    HW2 1517   2.322   0.118   2.256
  503SOL     OW 1518   2.123   2.579   2.081
  503SOL    HW1 1519   2.138   2.659   2.024
  503SOL    HW2 1520   2.169   2.592   2.169
  504SOL     OW 1521   0.269   0.279   2.308
  504SOL    HW1 1522   0.226   0.298   2.220
  504SOL    HW2 1523   0.328   0.356   2.334
  505SOL     OW 1524   2.397   1.160   0.000
  505SOL    HW1 1525   2.304   1.141  -0.033
  505SOL    HW2 1526   2.464   1.123  -0.064
  506SOL     OW 1527   2.396   1.407   2.072
  506SOL    HW1 1528   2.302   1.393   2.103
  506SOL    HW2 1529   2.396   1.444   1.979
  507SOL     OW 1530   2.398   0.233   2.152
  507SOL    HW1 1531   2.451   0.183   2.084
  507SOL    HW2 1532   2.347   0.306   2.107
  508SOL     OW 1533   2.174   1.119   2.245
  508SOL    HW1 1534   2.181   1.216   2.220
  508SOL    HW2 1535   2.201   1.063   2.166
  509SOL     OW 1536   2.117   0.159   2.504
  509SOL    HW1 1537   2.074   0.249   2.514
  509SOL    HW2 1538   2.181   0.144   2.579
  510SOL     OW 1539   1.921   1.289   2.045
  510SOL    HW1 1540   1.835   1.327   2.011
  510SOL    HW2 1541   1.904   1.199   2.085
  511SOL     OW 1542   0.063   0.505   2.188
  511SOL    HW1 1543   0.074   0.417   2.143
  511SOL    HW2 1544  -0.029   0.540   2.171
  512SOL     OW 1545   2.252   0.440   2.047
  512SOL    HW1 1546   2.320   0.506   2.078
  512SOL    HW2 1547   2.163   0.483   2.041
  513SOL     OW 1548   2.413   1.538   2.330
  513SOL    HW1 1549   2.380   1.486   2.252
  513SOL    HW2 1550   2.408   1.636   2.310
  514SOL     OW 1551   2.146   1.385   2.184
  514SOL    HW1 1552   2.061   1.372   2.133
  514SOL    HW2 1553   2.125   1.404   2.280
  515SOL     OW 1554   1.959   0.327   1.764
  515SOL    HW1 1555   1.866   0.341   1.729
  515SOL    HW2 1556   2.007   0.415   1.764
  516SOL     OW 1557   1.850   0.019   2.030
  516SOL    HW1 1558   1.852   0.066   1.942
  516SOL    HW2 1559   1.943  -0.006   2.056
  517SOL     OW 1560   2.511   0.796   2.427
  517SOL    HW1 1561   2.547   0.826   2.516
  517SOL    HW2 1562   2.419   0.760   2.439
  518SOL     OW 1563   2.139   1.107   2.513
  518SOL    HW1 1564   2.089   1.027   2.546
  518SOL    HW2 1565   2.149   1.101   2.414
  519SOL     OW 1566   2.359   0.384   2.381
  519SOL    HW1 1567   2.378   0.327   2.301
  519SOL    HW2 1568   2.418   0.355   2.457
  520SOL     OW 1569   1.915   1.048   2.197
  520SOL    HW1 1570   2.005   1.081   2.226
  520SOL    HW2 1571   1.922   0.951   2.173
  521SOL     OW 1572   2.093   2.186   0.991
  521SOL    HW1 1573   2.138   2.142   1.068
  521SOL    HW2 1574   2.009   2.137   0.968
  522SOL     OW 1575   1.874   2.278   0.663
  522SOL    HW1 1576   1.793   2.291   0.720
  522SOL    HW2 1577   1.853   2.212   0.590
  523SOL     OW 1578   0.182   0.044   1.881
  523SOL    HW1 1579   0.255   0.010   1.941
  523SOL    HW2 1580   0.218   0.054   1.788
  524SOL     OW 1581   2.258   2.313   1.452
  524SOL    HW1 1582   2.346   2.267   1.463
  524SOL    HW2 1583   2.185   2.246   1.455
  525SOL     OW 1584   1.871   2.552   0.612
  525SOL    HW1 1585   1.882   2.454   0.628
  525SOL    HW2 1586   1.961   2.595   0.613
  526SOL     OW 1587   1.919   0.044   1.535
  526SOL    HW1 1588   1.834   0.044   1.589
  526SOL    HW2 1589   1.947   0.138   1.518
  527SOL     OW 1590   0.104   1.891   0.505
  527SOL    HW1 1591   0.139   1.974   0.463
  527SOL    HW2 1592   0.004   1.895   0.509
  528SOL     OW 1593   2.202   2.149   1.880
  528SOL    HW1 1594   2.238   2.213   1.948
  528SOL    HW2 1595   2.131   2.194   1.827
  529SOL     OW 1596   2.485   2.501   0.318
  529SOL    HW1 1597   2.568   2.495   0.373
  529SOL    HW2 1598   2.414   2.550   0.370
  530SOL     OW 1599   2.400   1.989   0.950
  530SOL    HW1 1600   2.430   2.035   1.034
  530SOL    HW2 1601   2.455   2.023   0.873
  531SOL     OW 1602   2.062   2.127   1.447
  531SOL    HW1 1603   1.972   2.169   1.446
  531SOL    HW2 1604   2.058   2.040   1.496
  532SOL     OW 1605   2.415   1.998   0.154
  532SOL    HW1 1606   2.503   1.953   0.166
  532SOL    HW2 1607   2.388   1.995   0.058
  533SOL     OW 1608   2.412   1.920   0.515
  533SOL    HW1 1609   2.339   1.885   0.573
  533SOL    HW2 1610   2.406   2.020   0.509
  534SOL     OW 1611   0.204   2.125   0.394
  534SOL    HW1 1612   0.163   2.147   0.305
  534SOL    HW2 1613   0.303   2.131   0.388
  535SOL     OW 1614   1.931   2.460   1.329
  535SOL    HW1 1615   2.025   2.471   1.299
  535SOL    HW2 1616   1.911   2.525   1.402
  536SOL     OW 1617   2.453   2.126   1.193
  536SOL    HW1 1618   2.485   2.136   1.287
  536SOL    HW2 1619   2.355   2.109   1.192
  537SOL     OW 1620   2.275   2.199   0.272
  537SOL    HW1 1621   2.323   2.118   0.236
  537SOL    HW2 1622   2.295   2.278   0.215
  538SOL     OW 1623   2.489   2.466   0.924
  538SOL    HW1 1624   2.533   2.520   0.852
  538SOL    HW2 1625   2.530   2.488   1.012
  539SOL     OW 1626   2.344   2.025   1.672
  539SOL    HW1 1627   2.310   1.931   1.664
  539SOL    HW2 1628   2.297   2.072   1.747
  540SOL     OW 1629   2.189   2.052   1.214
  540SOL    HW1 1630   2.140   2.084   1.295
  540SOL    HW2 1631   2.195   1.952   1.215
  541SOL     OW 1632   2.176   1.892   0.666
  541SOL    HW1 1633   2.155   1.990   0.673
  541SOL    HW2 1634   2.183   1.853   0.758
  542SOL     OW 1635   2.095   0.072   0.923
  542SOL    HW1 1636   2.160   0.146   0.936
  542SOL    HW2 1637   2.136  -0.014   0.953
  543SOL     OW 1638   2.227   2.433   1.001
  543SOL    HW1 1639   2.190   2.341   0.985
  543SOL    HW2 1640   2.320   2.438   0.965
  544SOL     OW 1641   1.851   2.365   1.084
  544SOL    HW1 1642   1.928   2.321   1.038
  544SOL    HW2 1643   1.882   2.404   1.171
  545SOL     OW 1644   2.153   2.507   1.623
  545SOL    HW1 1645   2.194   2.444   1.557
  545SOL    HW2 1646   2.073   2.550   1.582
  546SOL     OW 1647   0.234   2.412   0.246
  546SOL    HW1 1648   0.187   2.335   0.204
  546SOL    HW2 1649   0.198   2.426   0.338
  547SOL     OW 1650   2.339   2.412   0.107
  547SOL    HW1 1651   2.402   2.432   0.182
  547SOL    HW2 1652   2.290   2.495   0.081
  548SOL     OW 1653   0.082   1.892   0.123
  548SOL    HW1 1654   0.083   1.904   0.024
  548SOL    HW2 1655   0.167   1.848   0.153
  549SOL     OW 1656   2.131   2.167   0.711
  549SOL    HW1 1657   2.046   2.212   0.682
  549SOL    HW2 1658   2.141   2.175   0.810
  550SOL     OW 1659   2.488   2.152   1.477
  550SOL    HW1 1660   2.584   2.129   1.492
  550SOL    HW2 1661   2.432   2.106   1.547
  551SOL     OW 1662   1.921   2.122   2.531
  551SOL    HW1 1663   1.849   2.190   2.543
  551SOL    HW2 1664   2.009   2.168   2.519
  552SOL     OW 1665   2.357   2.187   0.535
  552SOL    HW1 1666   2.325   2.206   0.442
  552SOL    HW2 1667   2.281   2.195   0.599
  553SOL     OW 1668   2.190   2.500   1.264
  553SOL    HW1 1669   2.232   2.432   1.324
  553SOL    HW2 1670   2.213   2.478   1.169
  554SOL     OW 1671   2.004   2.239   0.255
  554SOL    HW1 1672   2.102   2.226   0.271
  554SOL    HW2 1673   1.962   2.151   0.232
  555SOL     OW 1674   1.909   2.586   2.430
  555SOL    HW1 1675   1.940   2.492   2.443
  555SOL    HW2 1676   1.982   2.648   2.458
  556SOL     OW 1677   0.061   1.957   2.452
  556SOL    HW1 1678   0.128   2.027   2.431
  556SOL    HW2 1679  -0.031   1.997   2.451
  557SOL     OW 1680   2.488   2.024   2.122
  557SOL    HW1 1681   2.578   2.063   2.142
  557SOL    HW2 1682   2.468   2.033   2.024
  558SOL     OW 1683   2.356   1.993   2.471
  558SOL    HW1 1684   2.263   1.957   2.482
  558SOL    HW2 1685   2.353   2.077   2.416
  559SOL     OW 1686   2.039   1.956   1.991
  559SOL    HW1 1687   2.104   2.023   1.956
  559SOL    HW2 1688   2.079   1.909   2.070
  560SOL     OW 1689   0.273   2.124   2.403
  560SOL    HW1 1690   0.241   2.142   2.310
  560SOL    HW2 1691   0.353   2.182   2.423
  561SOL     OW 1692   2.316   2.182   2.273
  561SOL    HW1 1693   2.377   2.118   2.226
  561SOL    HW2 1694   2.285   2.251   2.208
  562SOL     OW 1695   2.093   1.909   2.475
  562SOL    HW1 1696   2.025   1.978   2.497
  562SOL    HW2 1697   2.108   1.850   2.554
  563SOL     OW 1698   2.538   2.432   2.078
  563SOL    HW1 1699   2.546   2.443   2.177
  563SOL    HW2 1700   2.531   2.522   2.035
  564SOL     OW 1701   2.276   2.346   2.056
  564SOL    HW1 1702   2.371   2.378   2.057
  564SOL    HW2 1703   2.215   2.425   2.055
  565SOL     OW 1704   2.017   2.299   1.753
  565SOL    HW1 1705   1.919   2.310   1.734
  565SOL    HW2 1706   2.066   2.379   1.718
  566SOL     OW 1707   1.786   1.953   2.095
  566SOL    HW1 1708   1.714   1.992   2.038
  566SOL    HW2 1709   1.875   1.969   2.051
  567SOL     OW 1710   2.158   2.256   2.496
  567SOL    HW1 1711   2.212   2.236   2.414
  567SOL    HW2 1712   2.216   2.302   2.564
   2.58927   2.58927   2.58927
