CATECHOL in water
 1712
    1MOL     O1    1   0.137   0.746   1.169  0.5137  0.2300 -0.2198
    1MOL     C1    2   0.034   0.719   1.087  0.0517  0.2500  0.0706
    1MOL     C2    3   0.051   0.618   0.990 -0.3891  1.0570  0.4463
    1MOL     C3    4  -0.049   0.596   0.897 -0.3195 -0.5523  0.4857
    1MOL     C4    5  -0.174   0.661   0.908  0.2677  0.0072 -0.0752
    1MOL     C5    6  -0.194   0.756   1.003 -0.0063 -0.1750  0.1309
    1MOL     C6    7  -0.091   0.790   1.093 -0.3721 -0.9012  0.4553
    1MOL     O2    8  -0.096   0.896   1.175  0.7428  0.1683 -0.5111
    1MOL     H1    9   0.115   0.833   1.206  2.6233  1.0248 -0.6882
    1MOL     H2   10   0.142   0.557   0.988 -1.2357 -0.2653  0.8588
    1MOL     H3   11  -0.044   0.521   0.819  0.8651 -0.3107  0.3212
    1MOL     H4   12  -0.253   0.630   0.841  0.3569 -1.0875  0.3128
    1MOL     H5   13  -0.288   0.810   0.998 -1.8573 -3.1099  0.9746
    1MOL     H6   14  -0.174   0.950   1.152 -1.8634 -3.0452  0.0713
    2SOL     OW   15   2.117   0.644   2.353 -0.1997 -0.0876 -0.4965
    2SOL    HW1   16   2.204   0.643   2.401  0.7381  0.1179 -2.1320
    2SOL    HW2   17   2.044   0.671   2.416  0.3763 -3.1538  1.7293
    3SOL     OW   18   1.080   0.722   1.441 -0.4429  0.5012  0.1372
    3SOL    HW1   19   1.165   0.670   1.441 -0.2361  0.8325 -0.1976
    3SOL    HW2   20   1.099   0.818   1.425 -0.9668  0.4229 -1.0611
    4SOL     OW   21   1.512   2.458   1.227 -1.0396  0.6923 -0.0177
    4SOL    HW1   22   1.579   2.387   1.201  0.5101  2.0969 -0.0172
    4SOL    HW2   23   1.423   2.435   1.187  0.2098  0.4693 -2.9378
    5SOL     OW   24   1.368   1.307   0.514  0.3392  0.4496  0.1445
    5SOL    HW1   25   1.344   1.404   0.521 -0.9691  0.2203 -0.7992
    5SOL    HW2   26   1.446   1.297   0.453  1.1115  0.9795  1.0217
    6SOL     OW   27   1.620   0.416   2.243  0.1519  0.1967  0.3871
    6SOL    HW1   28   1.698   0.372   2.199  0.3279 -1.1381  1.9236
    6SOL    HW2   29   1.651   0.495   2.295  0.1293  0.9778 -0.7447
    7SOL     OW   30   1.050   0.003   1.790  0.5805 -0.7564  0.2883
    7SOL    HW1   31   1.010  -0.089   1.799 -1.0485 -0.5423 -3.1870
    7SOL    HW2   32   1.132  -0.002   1.734 -0.2415  0.0078 -1.0256
    8SOL     OW   33   1.861   2.458   0.493 -0.1006  0.2254  0.3513
    8SOL    HW1   34   1.804   2.497   0.420 -0.8559 -0.5876  0.4972
    8SOL    HW2   35   1.927   2.527   0.523 -0.5738  0.9707 -0.2676
    9SOL     OW   36   0.302   1.322   0.438 -0.1283  0.3986 -0.3550
    9SOL    HW1   37   0.218   1.355   0.394  0.1182  0.1563 -1.0190
    9SOL    HW2   38   0.376   1.387   0.421 -0.2198  0.6920  0.3681
   10SOL     OW   39   2.369   1.297   1.354 -0.0528 -0.0781  0.2211
   10SOL    HW1   40   2.368   1.352   1.270 -0.7906  1.4835  1.2104
   10SOL    HW2   41   2.276   1.266   1.375  0.0695 -0.1624  0.6539
   11SOL     OW   42   2.116   1.455   1.833  0.6349 -0.3778 -0.5548
   11SOL    HW1   43   2.043   1.387   1.827  1.9581 -2.0061  0.8880
   11SOL    HW2   44   2.170   1.454   1.749  0.5730 -1.0396 -0.5932
   12SOL     OW   45   1.178   1.628   1.761  0.1027 -0.2950 -0.4291
   12SOL    HW1   46   1.215   1.538   1.736  1.6047  0.0371  0.4300
   12SOL    HW2   47   1.113   1.658   1.691 -1.9485 -2.8755  0.2279
   13SOL     OW   48   1.567   2.211   1.424  0.1918 -0.2565  0.3062
   13SOL    HW1   49   1.480   2.172   1.395  0.7739 -1.2333 -0.1809
   13SOL    HW2   50   1.560   2.241   1.519 -0.2684 -1.6471  0.7350
   14SOL     OW   51   2.448   0.695   2.182 -0.3289 -0.4261  0.0714
   14SOL    HW1   52   2.483   0.722   2.272  1.0306 -1.5543 -0.0909
   14SOL    HW2   53   2.423   0.598   2.184  2.3124 -1.2279 -1.4598
   15SOL     OW   54   1.816   0.595   0.985  0.5776 -0.1748  0.0609
   15SOL    HW1   55   1.749   0.612   0.912  0.5436 -0.8540 -0.0669
   15SOL    HW2   56   1.768   0.567   1.068  0.6537  0.0983  0.1991
   16SOL     OW   57   0.034   1.605   0.968  0.1034 -0.0737 -0.0635
   16SOL    HW1   58   0.006   1.686   0.915  1.2072 -0.2019 -0.8820
   16SOL    HW2   59   0.122   1.572   0.933  0.2587 -0.8970  1.0783
   17SOL     OW   60   1.963   1.717   1.657  0.0722  0.1651 -0.0924
   17SOL    HW1   61   1.996   1.807   1.684 -0.8859 -0.2286  2.7918
   17SOL    HW2   62   2.040   1.652   1.658  0.5566  0.7115 -1.0472
   18SOL     OW   63   0.207   0.923   0.934 -0.0565 -0.3341 -0.1015
   18SOL    HW1   64   0.204   0.924   1.034  0.6514  1.1582 -0.0718
   18SOL    HW2   65   0.124   0.965   0.897  0.4950  0.8054 -0.0867
   19SOL     OW   66   1.322   1.797   1.891 -0.0533  0.3058 -0.0924
   19SOL    HW1   67   1.353   1.757   1.977  1.9177  0.9464 -0.4353
   19SOL    HW2   68   1.267   1.731   1.840  0.7904 -0.9635  0.5880
   20SOL     OW   69   1.128   1.265   1.084 -0.2703 -0.5836 -0.1378
   20SOL    HW1   70   1.036   1.275   1.047 -0.0798  0.7520 -0.3038
   20SOL    HW2   71   1.162   1.172   1.066 -1.8500 -1.3316  0.5948
   21SOL     OW   72   0.020   1.502   1.827  0.0944 -0.9568 -0.1053
   21SOL    HW1   73   0.079   1.490   1.748 -0.1677  0.8917 -0.6251
   21SOL    HW2   74  -0.063   1.550   1.800 -0.2279 -0.7395  1.2032
   22SOL     OW   75   1.367   2.264   0.249  0.1212  0.3980 -0.6862
   22SOL    HW1   76   1.447   2.308   0.290 -0.0340  0.5339 -0.5288
   22SOL    HW2   77   1.389   2.169   0.227  0.2313  0.3482 -0.3681
   23SOL     OW   78   0.374   2.015   0.771 -0.2936  0.0772  0.3986
   23SOL    HW1   79   0.385   2.073   0.851 -1.8826  1.7038 -0.4831
   23SOL    HW2   80   0.463   2.002   0.727  0.1361  1.8019  0.6907
   24SOL     OW   81   0.280   0.028   1.000  0.0634 -0.3176  0.3735
   24SOL    HW1   82   0.262   0.126   0.994 -0.7980 -0.5273 -0.5586
   24SOL    HW2   83   0.320  -0.004   0.914 -0.6697 -0.9844  0.2708
   25SOL     OW   84   2.548   1.466   1.475 -0.4878  0.1118  0.0142
   25SOL    HW1   85   2.568   1.493   1.380  3.2767 -5.2741 -1.1535
   25SOL    HW2   86   2.479   1.394   1.475 -0.9024  0.4726  1.5377
   26SOL     OW   87   0.807   0.297   0.909  0.2454 -0.1577  0.3204
   26SOL    HW1   88   0.863   0.352   0.971  2.7052 -0.8763 -1.1240
   26SOL    HW2   89   0.857   0.215   0.884 -1.1250 -0.4213 -1.7527
   27SOL     OW   90   1.124   0.178   1.985  0.2054  0.6495  0.2010
   27SOL    HW1   91   1.092   0.144   1.897  1.3232 -2.7199  0.9462
   27SOL    HW2   92   1.046   0.203   2.042 -0.5691  1.7267 -1.2762
   28SOL     OW   93   0.351   0.762   1.355  0.4404  0.2030 -0.1942
   28SOL    HW1   94   0.309   0.738   1.267 -1.3728 -0.0176  0.6703
   28SOL    HW2   95   0.284   0.746   1.428  1.4978  1.5275  1.1060
   29SOL     OW   96   1.149   1.032   1.434 -0.1889  0.6137 -0.2533
   29SOL    HW1   97   1.168   1.043   1.336  0.5136  1.4138 -0.0428
   29SOL    HW2   98   1.235   1.021   1.484 -0.4428  1.5324  0.4185
   30SOL     OW   99   0.352   1.582   1.392 -0.5643 -0.2938  1.1049
   30SOL    HW1  100   0.330   1.652   1.460 -0.1536 -1.2531  2.2578
   30SOL    HW2  101   0.304   1.498   1.413 -2.0306 -0.0468 -0.9908
   31SOL     OW  102   0.692   2.017   1.757 -0.2698  0.0447 -0.3372
   31SOL    HW1  103   0.779   2.059   1.731  0.2414 -0.4431  0.5684
   31SOL    HW2  104   0.668   1.948   1.689  1.6159 -2.0037  0.9680
   32SOL     OW  105   0.098   2.563   2.533  0.0778  0.2923 -0.3386
   32SOL    HW1  106   0.060   2.585   2.444  0.3064  0.9880 -0.2715
   32SOL    HW2  107   0.037   2.598   2.605 -0.2399 -0.4943 -0.2134
   33SOL     OW  108   1.284   0.075   2.517  0.1998 -0.1237  0.4602
   33SOL    HW1  109   1.201   0.088   2.571 -0.7102  0.0085 -0.9418
   33SOL    HW2  110   1.333   0.162   2.508  0.1373 -0.0619  0.7189
   34SOL     OW  111   0.624   1.463   1.636 -0.2408 -0.1613 -0.0717
   34SOL    HW1  112   0.530   1.495   1.652 -0.0434 -0.3396  1.6748
   34SOL    HW2  113   0.630   1.366   1.661  0.5292 -0.0012  0.3821
   35SOL     OW  114   1.770   1.679   2.517 -0.2424  0.6249 -0.2883
   35SOL    HW1  115   1.687   1.717   2.476 -0.6650 -1.8002 -1.9486
   35SOL    HW2  116   1.836   1.658   2.445  0.8983  0.4272  0.7843
   36SOL     OW  117   2.318   2.383   0.049  0.1969 -0.2929  0.0301
   36SOL    HW1  118   2.272   2.395  -0.040 -0.0856 -1.4234  0.0022
   36SOL    HW2  119   2.377   2.461   0.067 -1.1333  0.8265 -0.3121
   37SOL     OW  120   0.608   0.539   0.685  0.0956 -0.1658  0.2368
   37SOL    HW1  121   0.521   0.577   0.656  0.8776  0.9786 -0.7308
   37SOL    HW2  122   0.626   0.563   0.780 -1.4128 -1.9093  1.0070
   38SOL     OW  123   1.933   1.256   1.833  0.4193  0.7886  0.1235
   38SOL    HW1  124   2.006   1.189   1.840 -0.3138  0.1060  1.6130
   38SOL    HW2  125   1.886   1.244   1.745  0.7793 -0.1382  0.0451
   39SOL     OW  126   1.564   0.339   0.924  0.1296  0.1043 -0.4615
   39SOL    HW1  127   1.626   0.263   0.946  0.4959  1.3637  3.8912
   39SOL    HW2  128   1.615   0.411   0.877  1.4449  0.0948  0.8547
   40SOL     OW  129   1.170   0.328   1.667  0.1498  0.8755 -0.1692
   40SOL    HW1  130   1.104   0.333   1.592 -0.7178  1.3451  0.6025
   40SOL    HW2  131   1.144   0.392   1.739 -0.4200 -1.2200  1.6007
   41SOL     OW  132   1.343   0.797   0.222 -0.8577  0.2211  0.0974
   41SOL    HW1  133   1.309   0.719   0.169 -0.9360  0.2427  0.1152
   41SOL    HW2  134   1.265   0.853   0.253 -0.9711 -0.8491  1.8876
   42SOL     OW  135   0.582   1.032   2.252  0.3841  0.1169  0.2526
   42SOL    HW1  136   0.640   1.110   2.273  1.1916 -0.7766  1.4655
   42SOL    HW2  137   0.630   0.971   2.188 -0.4974  0.8896 -1.2006
   43SOL     OW  138   0.955   1.075   2.493 -0.3660  0.3670 -0.3287
   43SOL    HW1  139   0.943   1.092   2.591  0.7202  1.6505 -0.3823
   43SOL    HW2  140   0.887   1.129   2.442 -1.5510 -1.0302 -0.2738
   44SOL     OW  141   0.683   0.062   1.573 -0.6107 -0.3758 -0.3189
   44SOL    HW1  142   0.714   0.150   1.536  1.0560 -0.5466  0.6041
   44SOL    HW2  143   0.703  -0.011   1.508  1.7618 -0.5896  0.5445
   45SOL     OW  144   0.641   1.962   1.423 -0.3488 -0.2356 -0.4239
   45SOL    HW1  145   0.692   1.900   1.482  0.6505  0.8078 -0.1697
   45SOL    HW2  146   0.551   1.980   1.463 -0.5200 -1.2419 -0.3331
   46SOL     OW  147   0.967   2.287   0.819  0.4051  0.0859 -0.6617
   46SOL    HW1  148   0.967   2.374   0.770 -2.4831 -0.0182 -0.9893
   46SOL    HW2  149   0.903   2.224   0.776  0.2070 -1.1627  1.3177
   47SOL     OW  150   1.614   1.711   1.011 -0.2320 -0.2777  0.1028
   47SOL    HW1  151   1.683   1.769   0.968 -1.5053  1.4592  0.2609
   47SOL    HW2  152   1.617   1.619   0.971  2.1234 -0.2625  0.1228
   48SOL     OW  153   1.394   0.807   1.125  0.2727  0.6062 -0.1494
   48SOL    HW1  154   1.358   0.728   1.075  1.3945  1.0872 -1.8098
   48SOL    HW2  155   1.455   0.775   1.198  0.0751 -0.0693 -0.2711
   49SOL     OW  156   1.644   2.309   2.051  0.1856 -0.4354  0.3557
   49SOL    HW1  157   1.732   2.315   2.004  0.6039 -0.4488  1.1124
   49SOL    HW2  158   1.657   2.331   2.148 -0.5755 -0.8210  0.5521
   50SOL     OW  159   0.762   1.207   1.703  0.6755  0.4167  0.4191
   50SOL    HW1  160   0.825   1.222   1.627  0.2454  2.3392  0.3770
   50SOL    HW2  161   0.814   1.199   1.788  1.1010 -0.7206  0.0656
   51SOL     OW  162   0.721   2.113   0.880  0.1438  0.1606  0.1786
   51SOL    HW1  163   0.729   2.102   0.979 -3.6253 -0.2822  0.5610
   51SOL    HW2  164   0.783   2.049   0.834 -1.0693 -2.7643  2.3199
   52SOL     OW  165   0.253   1.367   0.035  0.3375  0.6506  0.4557
   52SOL    HW1  166   0.186   1.399   0.102 -0.0104  2.9001 -0.8743
   52SOL    HW2  167   0.323   1.437   0.023 -0.2359  0.8218 -2.3573
   53SOL     OW  168   0.386   0.565   1.718 -0.1503  0.4645 -0.3710
   53SOL    HW1  169   0.413   0.659   1.699 -0.8729  0.0829 -4.1930
   53SOL    HW2  170   0.443   0.503   1.665 -1.0969 -1.1075  0.3689
   54SOL     OW  171   1.248   2.460   1.212  0.1042  0.0602 -0.2991
   54SOL    HW1  172   1.218   2.365   1.196 -0.9022  0.5443 -1.4591
   54SOL    HW2  173   1.172   2.513   1.249  0.5422  0.5166 -0.0425
   55SOL     OW  174   0.345   1.114   1.436 -0.4819 -0.6109 -0.2308
   55SOL    HW1  175   0.382   1.196   1.392 -0.8659  0.2110  0.9390
   55SOL    HW2  176   0.413   1.076   1.499 -0.3999 -1.0489 -0.5786
   56SOL     OW  177   1.048   1.268   0.618 -0.2812  0.5616  0.1465
   56SOL    HW1  178   1.133   1.259   0.669 -0.0699 -0.5410 -0.3592
   56SOL    HW2  179   1.026   1.180   0.574 -2.3265  0.4339  1.2796
   57SOL     OW  180   0.205   1.971   1.209  0.3392 -0.7551  0.2590
   57SOL    HW1  181   0.282   1.957   1.146  0.6085  0.5521  0.2729
   57SOL    HW2  182   0.127   2.010   1.160  0.5767  0.3504  0.7155
   58SOL     OW  183   2.444   0.026   0.103 -0.2093 -0.0704  0.1625
   58SOL    HW1  184   2.413   0.111   0.058  1.1526  0.6777  0.6056
   58SOL    HW2  185   2.452   0.041   0.201 -0.2902 -0.8388  0.2944
   59SOL     OW  186   0.245   0.342   0.277 -0.2424  0.2488  0.3161
   59SOL    HW1  187   0.341   0.322   0.262 -0.5621 -0.6855 -0.6162
   59SOL    HW2  188   0.198   0.261   0.311 -1.0793  0.0684 -1.1509
   60SOL     OW  189   2.109   0.667   2.073 -0.3747  0.3315  0.2615
   60SOL    HW1  190   2.146   0.755   2.044  0.4342 -0.1198 -0.1181
   60SOL    HW2  191   2.107   0.662   2.173 -0.0033  0.6049  0.2812
   61SOL     OW  192   2.035   0.262   2.037 -0.6594  0.4990  0.0484
   61SOL    HW1  193   2.058   0.238   1.942  0.8774 -0.1880  0.5616
   61SOL    HW2  194   1.993   0.183   2.082 -1.7304  0.9410 -0.1374
   62SOL     OW  195   2.295   0.368   1.014  0.3037 -0.1077  0.2179
   62SOL    HW1  196   2.317   0.464   1.034  1.0301 -0.2218 -0.0270
   62SOL    HW2  197   2.195   0.357   1.014  0.1708  0.8649 -0.7129
   63SOL     OW  198   1.634   2.422   0.263 -0.1024 -0.2502 -0.6299
   63SOL    HW1  199   1.640   2.504   0.320 -0.7229 -0.9642  0.5113
   63SOL    HW2  200   1.574   2.439   0.185 -1.7742 -0.1530  0.6219
   64SOL     OW  201   1.501   2.126   0.828 -0.3256 -0.2022 -0.4824
   64SOL    HW1  202   1.526   2.034   0.859 -0.9786  0.4288  2.2546
   64SOL    HW2  203   1.428   2.161   0.886  0.4728  2.3574 -0.8961
   65SOL     OW  204   1.379   0.389   2.161  0.0084 -0.0101 -0.3930
   65SOL    HW1  205   1.341   0.310   2.209  1.0459 -1.2635 -1.5486
   65SOL    HW2  206   1.476   0.399   2.185  0.3927 -0.3137 -1.7586
   66SOL     OW  207   0.025   0.400   1.855  0.2646 -0.2128  0.6080
   66SOL    HW1  208  -0.053   0.351   1.894 -1.3444  1.6352 -0.0933
   66SOL    HW2  209   0.077   0.337   1.797 -1.6017 -1.1873 -0.1329
   67SOL     OW  210   0.152   1.840   0.806  0.5641  0.6458 -0.2064
   67SOL    HW1  211   0.195   1.759   0.766 -1.2290 -0.1012 -0.7376
   67SOL    HW2  212   0.222   1.908   0.826  2.3356 -1.5199  1.5637
   68SOL     OW  213   0.477   0.800   0.389 -0.0477 -0.4001  0.3308
   68SOL    HW1  214   0.521   0.716   0.356 -0.6086 -0.5176 -0.1296
   68SOL    HW2  215   0.429   0.781   0.475  0.5240 -0.3460  0.6686
   69SOL     OW  216   0.451   0.286   0.045  0.2557  0.5512  0.0719
   69SOL    HW1  217   0.538   0.330   0.023  0.0909 -0.1929 -2.3664
   69SOL    HW2  218   0.380   0.355   0.053  0.9738  1.1555  1.9693
   70SOL     OW  219   2.293   0.015   1.915  0.1708 -0.1290 -0.0253
   70SOL    HW1  220   2.306   0.057   1.825  0.3902 -1.2631 -0.5404
   70SOL    HW2  221   2.196   0.000   1.932 -0.0209  1.7250  0.7184
   71SOL     OW  222   0.558   1.065   1.629 -0.3134 -0.1014  0.5147
   71SOL    HW1  223   0.631   1.124   1.661 -0.7544  0.9987 -0.4385
   71SOL    HW2  224   0.513   1.021   1.707 -1.1273  2.2070  1.4420
   72SOL     OW  225   1.644   1.826   0.304  0.7753 -0.5630 -0.1299
   72SOL    HW1  226   1.673   1.913   0.342  0.7860 -0.1764 -0.9999
   72SOL    HW2  227   1.722   1.781   0.261  0.1473  0.5354 -2.5891
   73SOL     OW  228   0.770   2.231   2.152  0.4477 -0.9645 -0.1927
   73SOL    HW1  229   0.780   2.187   2.241  2.4943 -0.5454 -0.1695
   73SOL    HW2  230   0.836   2.306   2.144  0.7553 -1.3828 -2.2819
   74SOL     OW  231   1.153   0.995   0.273  0.0740 -0.4103 -0.0547
   74SOL    HW1  232   1.072   0.985   0.331  0.2836 -0.6919  0.1961
   74SOL    HW2  233   1.136   1.064   0.203  0.5385  1.6162  1.6820
   75SOL     OW  234   1.946   0.372   0.227  0.4279 -0.0426  0.4843
   75SOL    HW1  235   1.958   0.471   0.232  0.5035 -0.0229 -0.0388
   75SOL    HW2  236   1.982   0.330   0.310  1.9059  0.2175  0.0016
   76SOL     OW  237   1.044   0.339   0.240 -0.1252  0.1858  0.3523
   76SOL    HW1  238   1.067   0.389   0.156  2.2022  0.1181  0.8888
   76SOL    HW2  239   0.995   0.399   0.302  0.2658  0.9894 -0.0972
   77SOL     OW  240   0.007   2.075   1.070  0.0824  0.5005  0.8219
   77SOL    HW1  241  -0.038   2.070   0.981  0.6239 -1.4592  0.6219
   77SOL    HW2  242  -0.034   2.149   1.123 -1.2180  0.7954 -0.5188
   78SOL     OW  243   0.460   1.737   1.213  0.2305 -0.2115 -0.1602
   78SOL    HW1  244   0.537   1.779   1.261  0.4328 -0.5436 -0.1894
   78SOL    HW2  245   0.418   1.668   1.272 -0.1427  0.0780 -0.0849
   79SOL     OW  246   0.740   2.586   0.038  0.6309 -0.2447  0.7132
   79SOL    HW1  247   0.713   2.500  -0.005 -1.3379  0.0468  1.2707
   79SOL    HW2  248   0.745   2.658  -0.031 -1.3058 -0.0494  0.7186
   80SOL     OW  249   0.106   2.381   1.633  0.0432 -0.3990 -0.2274
   80SOL    HW1  250   0.034   2.324   1.672 -1.0781  1.5325  0.6949
   80SOL    HW2  251   0.187   2.377   1.691  0.1083 -1.3201 -0.3754
   81SOL     OW  252   1.005   0.071   0.531  0.1381  0.5485  0.5502
   81SOL    HW1  253   0.968  -0.011   0.487 -0.6024  1.5341 -0.7296
   81SOL    HW2  254   1.102   0.057   0.551 -0.1993 -0.9768  1.2179
   82SOL     OW  255   0.458   1.317   1.321 -0.3606 -0.4690 -0.0681
   82SOL    HW1  256   0.430   1.412   1.338  1.0904 -0.3892  2.3851
   82SOL    HW2  257   0.558   1.314   1.312 -0.2831 -1.8885  1.0147
   83SOL     OW  258   1.788   1.110   0.986  0.2153 -0.3273 -0.4256
   83SOL    HW1  259   1.827   1.161   0.909 -0.3089  1.0972  0.2154
   83SOL    HW2  260   1.862   1.062   1.034  0.9092  0.7124 -0.4131
   84SOL     OW  261   0.613   0.287   1.090 -0.5664 -0.4225 -0.2930
   84SOL    HW1  262   0.538   0.349   1.068  0.0505  0.6435  0.5184
   84SOL    HW2  263   0.680   0.288   1.016  0.6669  1.8388  0.7748
   85SOL     OW  264   1.810   0.894   1.749  0.4592 -0.1183 -0.3530
   85SOL    HW1  265   1.821   0.992   1.731  1.1496  0.0662  0.9238
   85SOL    HW2  266   1.900   0.850   1.747  0.2782 -0.5188  0.1875
   86SOL     OW  267   1.257   1.026   2.497  0.4836  0.3752  0.2472
   86SOL    HW1  268   1.299   1.112   2.468  0.8917 -0.2626 -1.1712
   86SOL    HW2  269   1.158   1.034   2.491  0.4570  1.1600  1.4275
   87SOL     OW  270   1.675   1.412   2.432  0.5401 -0.2760 -0.1665
   87SOL    HW1  271   1.707   1.498   2.472  1.3818 -1.1188  1.0047
   87SOL    HW2  272   1.741   1.381   2.364 -0.7848  1.0451 -2.1721
   88SOL     OW  273   0.955   0.014   2.175 -0.1297 -0.6748 -0.2344
   88SOL    HW1  274   1.049   0.002   2.142  0.4668  2.0620  0.2406
   88SOL    HW2  275   0.944  -0.035   2.262  1.6898  0.9057  0.9735
   89SOL     OW  276   2.540   0.233   1.044 -0.2501 -0.2525  0.1786
   89SOL    HW1  277   2.447   0.255   1.015 -1.0254 -2.0632  1.1964
   89SOL    HW2  278   2.557   0.136   1.031  1.8607  0.1922 -0.8778
   90SOL     OW  279   2.206   1.135   0.628 -0.2575  0.0545  0.4653
   90SOL    HW1  280   2.196   1.234   0.643 -0.5394  0.0234  0.4863
   90SOL    HW2  281   2.230   1.119   0.533  0.8682  0.2090  0.7033
   91SOL     OW  282   1.531   1.756   2.394 -0.1820  0.0728 -0.2777
   91SOL    HW1  283   1.544   1.775   2.296 -0.8245  0.7377 -0.2426
   91SOL    HW2  284   1.436   1.731   2.410  0.1044 -0.8025  0.0653
   92SOL     OW  285   0.068   0.511   0.176  0.8347 -0.0564 -0.2352
   92SOL    HW1  286   0.090   0.527   0.080  0.3753 -2.8569 -0.8839
   92SOL    HW2  287   0.127   0.440   0.213 -1.6585 -2.0156  0.2868
   93SOL     OW  288   1.571   1.102   0.783 -0.4717 -0.1603 -0.5841
   93SOL    HW1  289   1.646   1.077   0.844 -1.3156 -1.1534  0.0832
   93SOL    HW2  290   1.607   1.149   0.702  0.7975 -0.1391 -0.0191
   94SOL     OW  291   0.488   1.182   2.498  0.2028 -0.1336 -0.6326
   94SOL    HW1  292   0.512   1.093   2.460  1.0485 -0.0096 -0.4120
   94SOL    HW2  293   0.484   1.250   2.424 -3.1959 -0.8324 -1.2627
   95SOL     OW  294   2.448   2.566   0.975 -0.2942 -0.3883 -0.1573
   95SOL    HW1  295   2.476   2.473   0.951 -1.0045 -0.9725  1.1733
   95SOL    HW2  296   2.348   2.569   0.984 -0.2874  0.5405 -0.3299
   96SOL     OW  297   1.319   0.608   1.453  0.0123 -0.0282  0.5151
   96SOL    HW1  298   1.347   0.549   1.530  1.0595 -0.0553  0.1305
   96SOL    HW2  299   1.394   0.614   1.388 -0.4663  0.9164  0.0422
   97SOL     OW  300   1.924   0.965   0.468  0.0391  0.8234  0.5740
   97SOL    HW1  301   1.933   0.883   0.525 -0.0445  0.9092  0.7106
   97SOL    HW2  302   1.828   0.978   0.444  0.3745 -1.3123 -2.6517
   98SOL     OW  303   2.462   2.390   1.905  0.3876  0.2680 -0.4593
   98SOL    HW1  304   2.417   2.475   1.931  0.9722 -0.0787  1.8420
   98SOL    HW2  305   2.473   2.332   1.985  1.3020 -1.3879 -1.7190
   99SOL     OW  306   1.483   2.141   0.562 -0.1991 -0.0729 -0.7561
   99SOL    HW1  307   1.420   2.219   0.569 -0.9919 -0.5183 -2.4242
   99SOL    HW2  308   1.485   2.092   0.648  0.3507  1.7972  0.3580
  100SOL     OW  309   0.215   0.653   0.358  0.0079  0.2176  0.0310
  100SOL    HW1  310   0.174   0.579   0.305  0.1392  1.7166 -2.3603
  100SOL    HW2  311   0.272   0.615   0.431  0.0146 -2.0071 -1.0426
  101SOL     OW  312   0.956   0.914   0.932 -0.4316 -0.2975  0.7385
  101SOL    HW1  313   0.930   0.955   0.845 -0.9735 -0.9328  0.5971
  101SOL    HW2  314   0.898   0.949   1.005 -1.2969 -1.2535  0.5213
  102SOL     OW  315   1.325   2.380   0.631 -0.2742 -0.9204 -0.5629
  102SOL    HW1  316   1.313   2.468   0.585 -2.2525 -0.8939 -0.0933
  102SOL    HW2  317   1.355   2.396   0.725 -0.8102 -0.7195 -0.4209
  103SOL     OW  318   0.454   0.194   2.142  0.3102  0.2421 -0.0770
  103SOL    HW1  319   0.363   0.235   2.152  0.0292 -0.3301 -0.2412
  103SOL    HW2  320   0.467   0.125   2.213  0.9615  0.9263  0.4815
  104SOL     OW  321   1.900   2.278   2.527 -0.4779 -0.4456  0.2123
  104SOL    HW1  322   1.994   2.243   2.517  0.6399  1.7972  2.0304
  104SOL    HW2  323   1.858   2.236   2.608  0.0907  0.7402  1.1496
  105SOL     OW  324   0.177   1.443   1.626 -0.0302  0.5893 -0.8336
  105SOL    HW1  325   0.183   1.343   1.635 -0.1150  0.6050 -0.6067
  105SOL    HW2  326   0.104   1.467   1.563 -1.0407  0.5527  0.2894
  106SOL     OW  327   0.945   0.062   0.815 -0.2697  0.3299  0.6217
  106SOL    HW1  328   1.027   0.043   0.867 -0.2850 -0.5259  0.3473
  106SOL    HW2  329   0.969   0.081   0.720 -0.3430  0.6006  0.6580
  107SOL     OW  330   0.532   2.542   1.801 -0.1316 -0.0988 -0.3363
  107SOL    HW1  331   0.580   2.552   1.714 -0.4034  0.2735 -0.4439
  107SOL    HW2  332   0.477   2.623   1.819 -1.6929 -1.0135 -0.8032
  108SOL     OW  333   1.767   0.554   0.554  0.5730 -0.5627  0.3710
  108SOL    HW1  334   1.793   0.463   0.520 -1.3174 -1.7475  1.8977
  108SOL    HW2  335   1.715   0.602   0.483  1.2451 -0.8166 -0.3104
  109SOL     OW  336   0.889   1.752   0.188  0.5304  0.3867  0.2626
  109SOL    HW1  337   0.969   1.722   0.239 -0.2797 -1.8851  0.3393
  109SOL    HW2  338   0.902   1.732   0.091 -0.1961 -0.6915  0.3669
  110SOL     OW  339   2.443   1.905   0.778 -0.0598 -0.4935  0.4061
  110SOL    HW1  340   2.445   2.004   0.792  0.9810 -0.4925  0.3250
  110SOL    HW2  341   2.536   1.869   0.779 -0.4538 -1.5584  0.9992
  111SOL     OW  342   0.902   0.640   1.223 -0.0877 -0.2931  0.0953
  111SOL    HW1  343   0.958   0.682   1.295 -1.3854  0.8786  0.4500
  111SOL    HW2  344   0.806   0.663   1.238 -0.5293 -1.1809 -1.2527
  112SOL     OW  345   0.537   0.914   0.083  0.0734 -0.0685 -0.3054
  112SOL    HW1  346   0.444   0.924   0.116  0.6365 -0.2588  1.4530
  112SOL    HW2  347   0.536   0.877  -0.010 -1.6034  1.3472 -0.8935
  113SOL     OW  348   1.363   0.775   2.448 -0.0214 -0.8902 -0.1094
  113SOL    HW1  349   1.276   0.727   2.436 -0.3391 -0.0120 -1.5870
  113SOL    HW2  350   1.345   0.869   2.476  0.3658 -0.4086 -1.3776
  114SOL     OW  351   1.727   1.846   1.982  0.6014 -0.0093  0.2278
  114SOL    HW1  352   1.667   1.904   2.038 -1.0462 -0.4910 -0.9556
  114SOL    HW2  353   1.749   1.763   2.032  1.9899  1.0512  1.4676
  115SOL     OW  354   1.326   2.213   1.059 -0.0018  0.5986 -0.3397
  115SOL    HW1  355   1.267   2.157   1.002 -0.2366  1.8287 -1.3480
  115SOL    HW2  356   1.337   2.170   1.148 -0.4771 -0.8386 -0.9503
  116SOL     OW  357   1.058   2.102   0.310  0.3930  0.0785 -0.0370
  116SOL    HW1  358   1.105   2.184   0.342  0.6974 -0.1674  0.1455
  116SOL    HW2  359   1.121   2.045   0.257  0.6438 -0.8192  1.1714
  117SOL     OW  360   0.880   0.636   0.031  0.1554 -0.0853  0.5768
  117SOL    HW1  361   0.837   0.711  -0.019  1.1399  0.8833  1.1342
  117SOL    HW2  362   0.811   0.566   0.051 -0.8879  0.8485  0.3960
  118SOL     OW  363   2.490   1.172   0.125  0.3512 -0.7229 -0.7021
  118SOL    HW1  364   2.540   1.128   0.199  1.3214  0.5885 -0.5398
  118SOL    HW2  365   2.540   1.162   0.039  1.2633  1.0743 -0.4375
  119SOL     OW  366   1.194   1.927   0.160 -0.2286 -0.3660  0.8637
  119SOL    HW1  367   1.289   1.923   0.130  0.3546  1.4819  2.2750
  119SOL    HW2  368   1.161   1.834   0.177  1.1248 -1.0768 -0.1506
  120SOL     OW  369   1.511   2.430   1.682 -0.5143  0.4752  0.0007
  120SOL    HW1  370   1.582   2.484   1.637 -0.4026  0.3169 -0.0123
  120SOL    HW2  371   1.550   2.344   1.715 -0.8218  0.1390 -0.5033
  121SOL     OW  372   1.507   1.663   1.712 -0.1649 -0.3998 -0.0700
  121SOL    HW1  373   1.588   1.620   1.753 -0.6301 -1.0513  0.1770
  121SOL    HW2  374   1.465   1.724   1.779  0.9725  1.1225 -0.6927
  122SOL     OW  375   2.330   1.770   0.055 -0.3680  0.0442 -0.1271
  122SOL    HW1  376   2.349   1.721  -0.030  1.7970  0.5742 -0.0110
  122SOL    HW2  377   2.268   1.716   0.112  0.8461 -1.9406 -0.5886
  123SOL     OW  378   0.576   0.808   1.544  0.0540 -0.5091 -0.1595
  123SOL    HW1  379   0.576   0.903   1.577 -2.0165 -0.0929 -1.1936
  123SOL    HW2  380   0.529   0.803   1.456 -0.5827 -2.6221  0.2354
  124SOL     OW  381   0.644   0.618   0.928  0.1086  0.3790 -0.2791
  124SOL    HW1  382   0.690   0.623   1.016  0.1459 -1.9491 -0.0868
  124SOL    HW2  383   0.545   0.610   0.942  0.2096 -1.4247 -0.3091
  125SOL     OW  384   0.910   1.579   0.456 -0.0783 -0.5598 -0.1399
  125SOL    HW1  385   0.909   1.519   0.376 -0.2762 -1.5827  0.5957
  125SOL    HW2  386   0.817   1.611   0.474  0.0643  0.1552 -0.6645
  126SOL     OW  387   0.579   2.369   1.059 -0.3831 -0.1095 -0.4199
  126SOL    HW1  388   0.615   2.442   1.002  0.6625 -0.2320  0.0727
  126SOL    HW2  389   0.546   2.407   1.145 -0.2435 -0.1647 -0.3425
  127SOL     OW  390   0.458   0.210   0.629 -0.0195 -0.4891  0.5322
  127SOL    HW1  391   0.555   0.230   0.646  0.0676 -0.4306 -0.0033
  127SOL    HW2  392   0.403   0.288   0.657  0.3327  0.6505 -1.6707
  128SOL     OW  393   0.336   2.412   0.239  0.3395 -0.0267  0.1193
  128SOL    HW1  394   0.366   2.448   0.151 -1.5858 -0.3386 -0.7041
  128SOL    HW2  395   0.319   2.487   0.302  1.0390  0.2309  0.0106
  129SOL     OW  396   0.377   0.013   0.019  0.2367  0.1008 -0.1296
  129SOL    HW1  397   0.399   0.107   0.044  0.2059  0.7165 -2.2343
  129SOL    HW2  398   0.278   0.003   0.011  0.2510 -0.0582 -0.1065
  130SOL     OW  399   0.873   0.874   1.870  1.1997  0.1134  0.0712
  130SOL    HW1  400   0.796   0.821   1.835 -0.0724  1.2894  1.0068
  130SOL    HW2  401   0.958   0.836   1.834  0.0899  0.3403 -3.1065
  131SOL     OW  402   1.422   1.287   2.489  0.3656 -0.5548  0.2727
  131SOL    HW1  403   1.507   1.339   2.493  0.6910 -1.1688  2.3786
  131SOL    HW2  404   1.392   1.264   2.582 -1.1718 -1.8494 -0.4941
  132SOL     OW  405   0.114   2.392   0.853  0.0366 -0.5063 -0.4550
  132SOL    HW1  406   0.198   2.443   0.836  0.5028 -0.4935  1.6805
  132SOL    HW2  407   0.096   2.387   0.951 -2.7315 -0.1133 -0.8475
  133SOL     OW  408   0.890   1.600   2.494 -0.0634 -0.6616 -0.0701
  133SOL    HW1  409   0.954   1.536   2.536  1.7893  0.1832 -1.4665
  133SOL    HW2  410   0.894   1.591   2.394 -0.2009  1.2043 -0.2768
  134SOL     OW  411   2.230   1.817   0.426 -0.1973 -0.3968 -0.2893
  134SOL    HW1  412   2.204   1.843   0.519  0.7370 -0.0230 -0.1310
  134SOL    HW2  413   2.324   1.845   0.408 -0.2900 -0.6839 -1.2680
  135SOL     OW  414   2.216   1.027   1.159  0.3996 -0.4018  0.1955
  135SOL    HW1  415   2.263   1.075   1.084 -0.8673  1.1270  0.3108
  135SOL    HW2  416   2.169   1.094   1.216  1.7720 -1.4841  2.7206
  136SOL     OW  417   2.370   1.045   2.114 -0.5688 -0.2364  0.3087
  136SOL    HW1  418   2.382   1.128   2.060  0.0233 -0.4569  0.0948
  136SOL    HW2  419   2.403   0.966   2.062  2.6733 -0.1544  1.9977
  137SOL     OW  420   1.731   1.785   1.466 -0.3600 -0.7766 -0.0996
  137SOL    HW1  421   1.667   1.723   1.511 -0.7210 -0.6056 -0.3679
  137SOL    HW2  422   1.824   1.767   1.498 -0.3951 -1.7681 -0.5131
  138SOL     OW  423   2.038   0.933   2.538  0.1864  0.0810  0.0556
  138SOL    HW1  424   2.057   1.014   2.483  1.1543 -0.0828  0.1279
  138SOL    HW2  425   2.040   0.957   2.635 -5.8794  1.3873  0.1995
  139SOL     OW  426   2.132   0.116   1.446 -0.0217  0.5327  0.0608
  139SOL    HW1  427   2.069   0.100   1.522  2.5792 -0.9616  2.0969
  139SOL    HW2  428   2.197   0.040   1.441  1.2628  1.6881 -2.3027
  140SOL     OW  429   0.667   2.015   2.024  0.6306  0.1866 -0.0447
  140SOL    HW1  430   0.707   2.099   2.061  1.8033 -0.0528 -0.7049
  140SOL    HW2  431   0.677   2.015   1.924  2.2504 -1.4932  0.0548
  141SOL     OW  432   2.585   1.070   0.783  0.1269  0.4315  0.1050
  141SOL    HW1  433   2.655   1.123   0.832  1.7535  0.2662 -1.9318
  141SOL    HW2  434   2.582   1.098   0.687 -0.1496 -1.9889 -0.6551
  142SOL     OW  435   1.096   1.860   0.925 -0.3067  0.5259 -0.1535
  142SOL    HW1  436   1.140   1.945   0.897  1.0948 -0.8474 -2.4167
  142SOL    HW2  437   1.159   1.784   0.913 -1.3119 -0.8473  2.3657
  143SOL     OW  438   2.464   0.711   2.462 -0.2492  0.4422 -0.1743
  143SOL    HW1  439   2.549   0.684   2.507 -0.2224  0.3173 -0.2986
  143SOL    HW2  440   2.415   0.777   2.519 -0.4152 -0.0275  0.2269
  144SOL     OW  441   0.177   1.200   0.911  0.1277  0.8341 -0.2580
  144SOL    HW1  442   0.117   1.224   0.987 -0.3355 -0.0562 -0.3292
  144SOL    HW2  443   0.269   1.180   0.946 -0.1954 -0.0037  0.1300
  145SOL     OW  444   2.275   1.801   1.802 -0.0264  0.3433 -0.4329
  145SOL    HW1  445   2.238   1.878   1.751  1.3378  1.2713 -0.0626
  145SOL    HW2  446   2.361   1.771   1.760 -1.2606 -1.9967 -1.4854
  146SOL     OW  447   1.603   0.273   1.453  0.1632 -0.2770 -0.2609
  146SOL    HW1  448   1.555   0.203   1.401 -1.2365 -0.8926  1.7190
  146SOL    HW2  449   1.702   0.261   1.442 -0.0520 -2.3680 -0.2387
  147SOL     OW  450   0.320   2.363   1.784 -0.0058  0.2813 -0.3405
  147SOL    HW1  451   0.322   2.287   1.849 -0.9730 -0.6181 -1.3168
  147SOL    HW2  452   0.396   2.425   1.803  0.9825 -1.0743  0.3174
  148SOL     OW  453   1.592   1.261   1.156 -0.0746  0.5082  0.1880
  148SOL    HW1  454   1.538   1.196   1.209  0.4857  0.8581  1.1984
  148SOL    HW2  455   1.645   1.211   1.087 -0.1652 -0.0331  0.5049
  149SOL     OW  456   0.668   1.595   0.590  0.0172  0.3642 -0.4564
  149SOL    HW1  457   0.602   1.632   0.655 -1.0007  0.1330 -1.3172
  149SOL    HW2  458   0.731   1.534   0.636  0.6570  1.8276  0.6862
  150SOL     OW  459   1.089   0.590   1.743  0.3729 -0.3941  0.6574
  150SOL    HW1  460   1.155   0.665   1.739 -0.2130  0.0723 -0.6604
  150SOL    HW2  461   1.024   0.598   1.668 -0.2041 -1.7706  0.9734
  151SOL     OW  462   1.159   2.325   0.402  0.3227  0.2774  0.3319
  151SOL    HW1  463   1.199   2.365   0.485  0.6711  1.2484 -0.2985
  151SOL    HW2  464   1.227   2.323   0.329 -1.0001  3.0024 -1.1231
  152SOL     OW  465   1.677   1.252   1.975  0.3254  0.3315 -0.0883
  152SOL    HW1  466   1.596   1.194   1.973  0.7901 -0.3683  0.9182
  152SOL    HW2  467   1.750   1.209   1.921  0.8435 -0.3072  1.0931
  153SOL     OW  468   0.642   1.466   1.054  0.1635 -0.0055 -0.5254
  153SOL    HW1  469   0.631   1.468   1.153  0.2385 -0.6999 -0.5004
  153SOL    HW2  470   0.637   1.560   1.018 -0.3677  0.1996  0.0725
  154SOL     OW  471   2.002   0.714   0.648 -0.2024  0.0044 -0.2568
  154SOL    HW1  472   2.046   0.639   0.697  0.2112 -0.0276 -0.6683
  154SOL    HW2  473   1.909   0.687   0.622 -0.1536 -0.2620 -0.1556
  155SOL     OW  474   1.569   0.059   2.290  0.1562 -0.0029 -0.2744
  155SOL    HW1  475   1.571  -0.031   2.333  3.1484  0.3331  0.5154
  155SOL    HW2  476   1.494   0.063   2.224 -0.3559 -2.8856  0.0032
  156SOL     OW  477   2.131   2.421   0.260 -0.1181  0.1180  0.0778
  156SOL    HW1  478   2.191   2.423   0.180  1.2636  0.0771  1.0698
  156SOL    HW2  479   2.090   2.511   0.274  0.0933  0.2803 -0.3435
  157SOL     OW  480   1.128   1.668   0.255 -0.3513  0.2152 -0.5232
  157SOL    HW1  481   1.153   1.583   0.208  1.5062  2.0483 -3.0574
  157SOL    HW2  482   1.187   1.680   0.335  0.8242  0.1130 -1.3499
  158SOL     OW  483   0.339   0.199   1.444 -0.2189 -0.2839 -0.0206
  158SOL    HW1  484   0.401   0.161   1.375 -1.2303 -0.3376 -0.9215
  158SOL    HW2  485   0.251   0.151   1.440 -1.0025  1.1098 -0.1262
  159SOL     OW  486   1.640   0.071   0.385 -0.3183  0.8651  0.2279
  159SOL    HW1  487   1.640   0.130   0.304 -0.1462 -0.5338 -0.8128
  159SOL    HW2  488   1.625   0.128   0.467 -0.7207  2.2699 -0.7788
  160SOL     OW  489   2.583   1.231   1.111 -0.3093  0.6841 -0.0811
  160SOL    HW1  490   2.520   1.170   1.063 -0.2930 -0.1474  0.9052
  160SOL    HW2  491   2.534   1.313   1.141 -0.6697  0.5258 -0.2322
  161SOL     OW  492   1.700   0.221   2.489 -0.1705 -0.0918  0.1934
  161SOL    HW1  493   1.734   0.306   2.450 -1.4577  0.8778  1.1142
  161SOL    HW2  494   1.689   0.153   2.417  1.0108  0.4672 -0.5284
  162SOL     OW  495   1.185   2.374   0.019 -0.0619 -0.3603 -0.4321
  162SOL    HW1  496   1.253   2.347   0.088  2.3133 -0.5225 -2.6805
  162SOL    HW2  497   1.148   2.464   0.043  2.2568  0.5460  0.0474
  163SOL     OW  498   1.987   1.240   0.440 -0.1733 -0.0101 -0.5416
  163SOL    HW1  499   1.962   1.243   0.343 -1.8796 -1.4268 -0.1915
  163SOL    HW2  500   1.959   1.152   0.479  1.4501  0.1030  1.0086
  164SOL     OW  501   1.105   1.973   1.257 -0.0084 -0.2307 -0.1320
  164SOL    HW1  502   1.030   1.915   1.223  0.3884 -0.1357 -1.1824
  164SOL    HW2  503   1.076   2.068   1.258  0.8717  0.1330 -2.9031
  165SOL     OW  504   0.920   0.961   0.428 -0.1335 -0.6388 -0.0663
  165SOL    HW1  505   0.945   0.866   0.449 -0.1702 -0.7901 -0.7058
  165SOL    HW2  506   0.853   0.962   0.354 -0.5649 -0.1370  0.3297
  166SOL     OW  507   1.379   0.534   1.715  0.5883 -0.0438 -0.0281
  166SOL    HW1  508   1.356   0.438   1.732 -1.7988  0.1688 -1.4417
  166SOL    HW2  509   1.394   0.581   1.802  0.9516 -1.5018  0.7298
  167SOL     OW  510   2.372   0.663   1.483  0.1220  0.2708  0.0501
  167SOL    HW1  511   2.445   0.667   1.552 -0.3227 -0.4219  0.5802
  167SOL    HW2  512   2.409   0.628   1.397  0.2489 -0.9594  0.5797
  168SOL     OW  513   2.063   0.498   1.140 -0.1560 -0.1314 -0.1083
  168SOL    HW1  514   2.093   0.587   1.176  5.0994 -0.9937 -1.4668
  168SOL    HW2  515   2.009   0.512   1.058  0.6089  1.8630 -0.3309
  169SOL     OW  516   0.076   2.228   1.413  0.7461 -0.0613  0.4169
  169SOL    HW1  517   0.068   2.277   1.500 -0.5954  1.2640 -0.4070
  169SOL    HW2  518   0.173   2.210   1.394  1.0139 -1.4680  2.7332
  170SOL     OW  519   2.120   1.385   0.650 -0.6252 -0.2266  0.0291
  170SOL    HW1  520   2.091   1.349   0.561 -1.1896  0.7048 -0.1870
  170SOL    HW2  521   2.091   1.481   0.657  1.1517  0.3133  0.4094
  171SOL     OW  522   1.083   0.484   1.980 -0.0823 -0.1803 -0.0649
  171SOL    HW1  523   1.091   0.522   1.888  0.7061  0.0828  0.1146
  171SOL    HW2  524   1.159   0.422   1.998 -0.4666 -0.5721  0.2573
  172SOL     OW  525   0.261   0.856   0.119 -0.4146  0.0008 -0.0458
  172SOL    HW1  526   0.247   0.950   0.150 -0.0310  0.1982 -0.4648
  172SOL    HW2  527   0.192   0.797   0.162  0.7146  0.0796  2.0244
  173SOL     OW  528   1.560   1.910   1.306 -0.1303  0.1695  0.0506
  173SOL    HW1  529   1.605   1.979   1.249 -1.4246  0.7293 -0.3144
  173SOL    HW2  530   1.629   1.862   1.360  0.7471  2.3102  0.9390
  174SOL     OW  531   0.076   1.641   2.402  0.1275  0.0065 -0.1850
  174SOL    HW1  532   0.064   1.691   2.317  0.4765  0.8721  0.2579
  174SOL    HW2  533   0.172   1.645   2.430  0.1238 -0.7473 -0.0350
  175SOL     OW  534   0.262   1.928   2.406 -0.0359 -0.4007 -0.4439
  175SOL    HW1  535   0.355   1.905   2.379  0.3812  1.8644 -1.1761
  175SOL    HW2  536   0.252   1.917   2.505  1.5437  0.8361 -0.0920
  176SOL     OW  537   2.225   2.420   1.266  0.3028 -0.4376 -0.2749
  176SOL    HW1  538   2.273   2.442   1.351  1.8169 -2.7297 -0.4634
  176SOL    HW2  539   2.223   2.502   1.207  0.8565  0.6659  1.1814
  177SOL     OW  540   1.519   2.518   0.018 -0.3618  0.2570 -0.2477
  177SOL    HW1  541   1.539   2.464  -0.064 -1.6938 -1.1949  0.3440
  177SOL    HW2  542   1.450   2.587  -0.005 -1.7110 -0.9871 -0.1176
  178SOL     OW  543   2.058   1.844   2.427  0.5498  0.4580 -0.1355
  178SOL    HW1  544   2.101   1.884   2.508 -1.5487 -1.0702  1.8810
  178SOL    HW2  545   1.968   1.887   2.413  0.0318 -0.6678 -0.3857
  179SOL     OW  546   0.481   0.284   1.884  0.0287 -0.8484 -0.0646
  179SOL    HW1  547   0.445   0.231   1.961  0.4970 -3.1431 -1.3346
  179SOL    HW2  548   0.578   0.303   1.900 -0.4183  0.7378  0.9414
  180SOL     OW  549   2.573   1.550   1.219  0.3610 -0.3789  0.8033
  180SOL    HW1  550   2.598   1.577   1.126  2.0624 -1.8348  0.7846
  180SOL    HW2  551   2.576   1.630   1.279 -0.7488  0.5813 -0.3519
  181SOL     OW  552   1.975   0.049   0.181 -0.3774 -0.1907 -0.0122
  181SOL    HW1  553   1.915   0.043   0.102 -0.0099 -1.1069 -0.2366
  181SOL    HW2  554   1.970   0.141   0.221 -1.5067 -0.0993 -0.3461
  182SOL     OW  555   1.410   0.317   2.485  0.5268  0.4038  0.2826
  182SOL    HW1  556   1.481   0.349   2.548  1.2691  0.9579 -0.7918
  182SOL    HW2  557   1.443   0.328   2.391 -1.1889  1.1521 -0.2619
  183SOL     OW  558   1.288   1.298   1.314  0.0930 -0.1686 -0.0853
  183SOL    HW1  559   1.339   1.213   1.325 -2.7332 -1.7759  2.1443
  183SOL    HW2  560   1.208   1.281   1.256  1.1859  1.9251 -2.3908
  184SOL     OW  561   2.152   1.847   2.044  0.0251  0.5157  0.2427
  184SOL    HW1  562   2.214   1.857   1.967 -1.1392 -0.4344 -0.8761
  184SOL    HW2  563   2.201   1.862   2.129  2.0674 -1.2303 -0.5284
  185SOL     OW  564   1.883   1.662   1.131  0.0845 -0.0823  0.7048
  185SOL    HW1  565   1.792   1.640   1.095 -0.2650  0.0359  1.4983
  185SOL    HW2  566   1.884   1.758   1.159  0.8943  0.3238 -0.5975
  186SOL     OW  567   2.186   1.625   0.247 -0.4044  0.0940 -0.0901
  186SOL    HW1  568   2.201   1.672   0.334 -0.3389 -0.7883  0.3891
  186SOL    HW2  569   2.088   1.620   0.228 -0.5888 -1.8110  1.1515
  187SOL     OW  570   0.241   0.415   1.271  0.6613 -0.3720 -0.2926
  187SOL    HW1  571   0.202   0.495   1.317  0.6429 -0.9140  0.6533
  187SOL    HW2  572   0.245   0.339   1.335  2.0584 -0.7154 -0.7611
  188SOL     OW  573   1.171   1.655   0.563 -0.4850  0.0700 -0.1696
  188SOL    HW1  574   1.078   1.621   0.552  0.0232 -1.7532  0.7118
  188SOL    HW2  575   1.195   1.655   0.660  0.3175  0.8374 -0.3585
  189SOL     OW  576   0.307   0.934   0.683 -0.2954 -0.3656 -0.0899
  189SOL    HW1  577   0.363   1.008   0.646 -1.3255  0.0649 -0.8048
  189SOL    HW2  578   0.278   0.958   0.776 -0.7185  0.1746 -0.3606
  190SOL     OW  579   0.883   1.625   2.203 -0.5598 -0.1371 -0.1597
  190SOL    HW1  580   0.901   1.719   2.173  3.3416 -0.5116  0.6053
  190SOL    HW2  581   0.916   1.561   2.134 -2.3620 -1.0349 -0.2543
  191SOL     OW  582   0.401   2.169   1.010 -0.1680  0.3744 -0.4572
  191SOL    HW1  583   0.473   2.237   1.025 -0.2024  0.4317 -0.5501
  191SOL    HW2  584   0.312   2.211   1.029 -0.1778  0.3113 -0.3674
  192SOL     OW  585   2.111   1.974   1.659 -0.0379  0.0402  0.1291
  192SOL    HW1  586   2.142   2.027   1.737  0.1865 -0.0343  0.0903
  192SOL    HW2  587   2.051   2.031   1.602 -0.0067  0.1688  0.2249
  193SOL     OW  588   1.412   1.823   0.734  0.6172  0.1961 -0.3335
  193SOL    HW1  589   1.409   1.871   0.822 -0.7493 -0.4514  0.0058
  193SOL    HW2  590   1.351   1.869   0.670  0.2296 -0.3794 -0.3804
  194SOL     OW  591   1.699   2.222   1.712  0.5981  0.2402  0.6601
  194SOL    HW1  592   1.761   2.244   1.788  1.5078 -0.9602  0.2893
  194SOL    HW2  593   1.675   2.125   1.716  0.3689  0.2459 -0.3850
  195SOL     OW  594   1.166   2.375   2.074  0.2609  0.1724 -0.3647
  195SOL    HW1  595   1.184   2.384   2.172 -0.0931 -2.3998 -0.0033
  195SOL    HW2  596   1.242   2.413   2.022 -0.0491  2.6143  0.8381
  196SOL     OW  597   1.434   1.477   1.474 -0.0785 -0.6700 -0.0746
  196SOL    HW1  598   1.383   1.563   1.472 -0.0373 -0.6395  0.1456
  196SOL    HW2  599   1.406   1.420   1.398  1.4933  0.4384 -1.5555
  197SOL     OW  600   1.234   1.333   1.928 -0.0275  0.0134  0.4506
  197SOL    HW1  601   1.297   1.261   1.900 -0.2351  0.0576 -0.1498
  197SOL    HW2  602   1.225   1.334   2.028 -0.7740 -1.4259  0.4144
  198SOL     OW  603   1.985   0.171   1.012 -0.4239  0.0842 -0.1096
  198SOL    HW1  604   1.895   0.159   1.053  0.1985  2.6315  2.3428
  198SOL    HW2  605   1.981   0.248   0.947 -0.5176 -1.4640 -2.0289
  199SOL     OW  606   0.047   2.087   0.533  0.1759  0.0208  0.2989
  199SOL    HW1  607   0.004   2.098   0.444  0.9590  1.7801  0.0993
  199SOL    HW2  608   0.143   2.062   0.521  1.0712  2.9917  0.4828
  200SOL     OW  609   0.565   0.380   1.484  0.2105 -0.1472 -0.5904
  200SOL    HW1  610   0.630   0.351   1.415 -0.3146 -1.3604 -0.5881
  200SOL    HW2  611   0.480   0.328   1.475 -0.1777  0.2772  0.4217
  201SOL     OW  612   0.573   0.930   0.846  0.3330 -0.1532  0.3774
  201SOL    HW1  613   0.648   0.865   0.832 -0.5698 -0.6693 -2.7595
  201SOL    HW2  614   0.599   1.020   0.812 -0.3916 -0.3015 -0.6074
  202SOL     OW  615   1.384   2.129   2.136  0.0966 -0.7628 -0.2484
  202SOL    HW1  616   1.390   2.208   2.074  0.2225 -0.1821  0.4935
  202SOL    HW2  617   1.294   2.087   2.127 -0.3934  0.1668  0.1805
  203SOL     OW  618   0.777   0.866   0.204  0.2891  0.4534 -0.4827
  203SOL    HW1  619   0.812   0.776   0.176  1.4594  1.3537 -2.0666
  203SOL    HW2  620   0.686   0.880   0.165 -0.6466 -0.6670  1.1523
  204SOL     OW  621   1.708   2.068   0.423 -0.4392 -0.1836 -0.3964
  204SOL    HW1  622   1.625   2.102   0.466 -0.4170  1.3609 -1.5028
  204SOL    HW2  623   1.788   2.110   0.468 -0.3280 -0.2652 -0.5189
  205SOL     OW  624   1.373   1.917   1.010 -0.0305 -0.2753 -0.0238
  205SOL    HW1  625   1.443   1.865   1.059  2.2211  1.4537 -1.1888
  205SOL    HW2  626   1.321   1.972   1.075  0.6733 -0.5067  0.7485
  206SOL     OW  627   2.129   0.763   1.241 -0.6530 -0.2041 -0.4329
  206SOL    HW1  628   2.111   0.734   1.335 -0.9742  1.6080  0.0938
  206SOL    HW2  629   2.185   0.846   1.241 -1.3331  0.2842 -1.8200
  207SOL     OW  630   0.991   0.378   1.486  0.0643 -0.4210 -0.6854
  207SOL    HW1  631   1.062   0.392   1.417  0.4688  2.4604  0.1919
  207SOL    HW2  632   0.905   0.354   1.440  0.5431  0.5141 -2.1563
  208SOL     OW  633   0.519   0.003   2.364  0.2488 -0.2448  0.3082
  208SOL    HW1  634   0.479  -0.068   2.307  0.5908  0.7438 -1.2300
  208SOL    HW2  635   0.464   0.015   2.447 -1.3837 -0.4255 -0.6994
  209SOL     OW  636   0.385   2.100   1.634 -0.2341 -0.5122  0.3663
  209SOL    HW1  637   0.387   2.190   1.589 -0.1642 -0.2214  0.9479
  209SOL    HW2  638   0.407   2.111   1.731 -2.5377 -0.8464  0.9705
  210SOL     OW  639   1.732   2.049   1.119 -0.0371 -0.0072 -0.0431
  210SOL    HW1  640   1.807   2.003   1.165  1.5316  2.3575 -0.0878
  210SOL    HW2  641   1.745   2.043   1.020  0.0622  0.3214 -0.0520
  211SOL     OW  642   1.993   0.227   0.440 -0.1533  0.2828 -0.1258
  211SOL    HW1  643   2.024   0.282   0.518  0.9086  0.1462 -0.4327
  211SOL    HW2  644   1.953   0.142   0.473  0.9332 -0.0934  0.2720
  212SOL     OW  645   0.469   1.830   2.110 -0.5924  0.6536  0.0116
  212SOL    HW1  646   0.385   1.835   2.057  0.7435 -0.1185 -2.2921
  212SOL    HW2  647   0.544   1.872   2.059  1.1371 -1.6771  0.4645
  213SOL     OW  648   0.498   1.712   0.771  0.5405 -0.0256  0.5567
  213SOL    HW1  649   0.550   1.706   0.856  1.9839  1.1511 -0.2172
  213SOL    HW2  650   0.506   1.804   0.733 -1.7979  0.0850  0.1871
  214SOL     OW  651   0.162   0.631   2.499  0.5678 -0.0447  0.2015
  214SOL    HW1  652   0.252   0.639   2.542  0.7208 -0.1987 -0.0833
  214SOL    HW2  653   0.151   0.702   2.430  0.2644  0.2929  0.5901
  215SOL     OW  654   2.189   1.573   1.395  0.2182 -0.2171 -0.6720
  215SOL    HW1  655   2.187   1.673   1.401 -0.4466 -0.2759  0.2628
  215SOL    HW2  656   2.109   1.541   1.345  1.5733 -0.1847 -2.9678
  216SOL     OW  657   0.259   1.622   0.697  0.8678  0.5550  0.1827
  216SOL    HW1  658   0.239   1.524   0.693  0.1746  0.7346 -1.4557
  216SOL    HW2  659   0.352   1.635   0.733  0.5566 -0.6173  1.5263
  217SOL     OW  660   2.365   0.469   2.401 -0.4117  0.1600 -0.2689
  217SOL    HW1  661   2.354   0.431   2.309 -0.7343 -1.6788  0.4748
  217SOL    HW2  662   2.420   0.552   2.397  0.2328 -0.3139 -2.0268
  218SOL     OW  663   0.110   0.857   2.352 -0.5281 -0.3958 -0.4567
  218SOL    HW1  664   0.193   0.908   2.332 -0.5467 -0.4379 -0.6380
  218SOL    HW2  665   0.033   0.920   2.358 -0.4439 -0.3258 -0.0437
  219SOL     OW  666   1.473   0.948   2.129  0.0881 -0.8093 -0.4881
  219SOL    HW1  667   1.501   0.953   2.225  1.5948  1.7084 -0.9649
  219SOL    HW2  668   1.549   0.915   2.074  0.1880  0.3933 -1.1029
  220SOL     OW  669   0.543   0.535   0.277  0.3220  0.1308  0.0534
  220SOL    HW1  670   0.560   0.437   0.289  0.6149  0.2545  0.6676
  220SOL    HW2  671   0.498   0.550   0.189  1.8349 -0.3796 -0.8280
  221SOL     OW  672   0.104   2.437   1.122  0.4256  0.2368 -0.2835
  221SOL    HW1  673   0.128   2.425   1.218  1.8653 -2.0666 -0.8573
  221SOL    HW2  674   0.161   2.509   1.082  1.7631 -0.6414 -0.0211
  222SOL     OW  675   1.649   2.382   0.863  0.1970 -0.6166  0.4520
  222SOL    HW1  676   1.626   2.285   0.851  0.4875 -0.8016  1.3043
  222SOL    HW2  677   1.748   2.393   0.861  0.1817 -0.4016  0.7902
  223SOL     OW  678   0.856   1.119   0.171  0.6323  0.0969 -0.1069
  223SOL    HW1  679   0.785   1.181   0.204 -0.2570 -0.4482 -0.9396
  223SOL    HW2  680   0.820   1.025   0.169  1.2698 -0.1411 -0.8314
  224SOL     OW  681   0.361   0.657   0.633 -0.0235 -0.1918 -0.0331
  224SOL    HW1  682   0.301   0.581   0.658  0.4761 -0.1538  1.3712
  224SOL    HW2  683   0.334   0.739   0.684 -0.0506  0.3656 -0.9248
  225SOL     OW  684   2.377   1.261   1.940 -0.1651  0.1626  0.0444
  225SOL    HW1  685   2.343   1.335   1.883 -1.8853 -0.3368  0.3499
  225SOL    HW2  686   2.471   1.238   1.913 -0.8101  0.1223 -2.4049
  226SOL     OW  687   0.395   1.587   1.716 -0.0587 -0.2723 -0.6967
  226SOL    HW1  688   0.317   1.539   1.674 -1.0495  0.4916  0.2217
  226SOL    HW2  689   0.401   1.561   1.812  0.7251 -0.1785 -0.7169
  227SOL     OW  690   1.765   0.841   1.235 -0.5103 -0.3582 -0.3785
  227SOL    HW1  691   1.800   0.848   1.141 -0.6817  1.3953 -0.3493
  227SOL    HW2  692   1.705   0.761   1.242  1.8989 -2.3442 -0.9201
  228SOL     OW  693   0.551   0.752   2.440  0.3841 -0.1368 -0.1673
  228SOL    HW1  694   0.512   0.699   2.365  1.1023  0.0614 -0.6882
  228SOL    HW2  695   0.640   0.788   2.413  1.3169 -1.2530  1.2791
  229SOL     OW  696   1.934   2.160   1.548  0.2789  0.2848  0.4622
  229SOL    HW1  697   1.974   2.189   1.460 -0.2435 -0.4903 -0.0430
  229SOL    HW2  698   1.841   2.195   1.555 -0.2966 -1.0376 -0.0747
  230SOL     OW  699   1.427   1.291   1.668 -0.5376 -0.4035 -0.4769
  230SOL    HW1  700   1.502   1.329   1.722 -0.2461 -0.9280 -0.4991
  230SOL    HW2  701   1.409   1.350   1.589 -1.6639  0.9320  0.7205
  231SOL     OW  702   0.039   1.139   1.912 -0.7334 -0.3248 -0.2158
  231SOL    HW1  703   0.119   1.199   1.903 -1.9164  1.3506 -0.0641
  231SOL    HW2  704   0.069   1.044   1.917  1.2731  0.2841  0.2565
  232SOL     OW  705   1.536   0.658   0.398  0.4451 -0.0663  0.2449
  232SOL    HW1  706   1.486   0.723   0.342  0.2829 -0.5651 -0.1990
  232SOL    HW2  707   1.477   0.622   0.470 -0.0845 -1.2083 -0.7263
  233SOL     OW  708   0.122   0.834   1.816 -0.4622  0.2061 -0.1959
  233SOL    HW1  709   0.145   0.894   1.740  0.0843  0.9174  0.5115
  233SOL    HW2  710   0.198   0.831   1.881 -0.9742 -0.2681  0.3985
  234SOL     OW  711   1.051   1.725   1.524 -0.2546  0.5424 -0.0012
  234SOL    HW1  712   1.004   1.670   1.455 -0.7778  0.5002  0.3850
  234SOL    HW2  713   1.139   1.756   1.487  0.6249 -1.5609  0.1820
  235SOL     OW  714   0.826   1.075   1.198  0.2042 -0.0767 -0.2963
  235SOL    HW1  715   0.853   1.045   1.289  0.9326 -0.8994 -0.7689
  235SOL    HW2  716   0.728   1.061   1.186  0.2360 -0.6718  0.0966
  236SOL     OW  717   2.091   1.026   0.209 -0.6182  0.0711  0.4218
  236SOL    HW1  718   2.180   0.992   0.240 -0.0709  0.9541 -0.1213
  236SOL    HW2  719   2.022   1.008   0.279 -0.5341 -2.7191 -0.0947
  237SOL     OW  720   1.044   1.161   2.145  0.2768 -0.3342  1.0013
  237SOL    HW1  721   1.072   1.070   2.175  1.2067 -0.1749  0.6396
  237SOL    HW2  722   1.115   1.228   2.167  1.2943 -0.2885 -1.9234
  238SOL     OW  723   1.327   1.759   1.519  0.1405  0.3191 -0.2110
  238SOL    HW1  724   1.383   1.829   1.474  0.0599  0.8261  0.4608
  238SOL    HW2  725   1.380   1.718   1.594 -0.0611  0.1606 -0.1553
  239SOL     OW  726   0.786   0.154   1.804  0.1267 -0.1880 -0.6921
  239SOL    HW1  727   0.876   0.111   1.798 -1.5552 -4.1235 -0.8545
  239SOL    HW2  728   0.729   0.124   1.728 -1.2795  2.5535 -0.8471
  240SOL     OW  729   0.014   2.426   0.274 -0.0278  0.7700  0.2715
  240SOL    HW1  730   0.067   2.351   0.313 -2.3240 -1.0178  0.1947
  240SOL    HW2  731  -0.083   2.401   0.271 -0.4736  2.2214 -3.2279
  241SOL     OW  732   0.265   0.380   0.715 -0.3311 -0.4313  0.2019
  241SOL    HW1  733   0.192   0.425   0.664  1.1359  0.1103 -1.5278
  241SOL    HW2  734   0.227   0.339   0.798 -2.1004  2.2384  0.8369
  242SOL     OW  735   0.185   2.158   2.259  0.2667  0.6467 -0.3698
  242SOL    HW1  736   0.231   2.073   2.285  2.4607  1.0810 -2.4627
  242SOL    HW2  737   0.162   2.209   2.341 -1.4394 -2.0497  0.9860
  243SOL     OW  738   2.079   2.107   2.265 -0.0418  0.7651  0.8114
  243SOL    HW1  739   2.151   2.043   2.293  0.8320  0.5291 -1.6940
  243SOL    HW2  740   2.115   2.169   2.195 -1.9778  1.3503  0.2760
  244SOL     OW  741   2.339   2.503   1.478 -0.0576  0.3901 -0.4575
  244SOL    HW1  742   2.370   2.579   1.535 -0.1295  0.2163 -0.1840
  244SOL    HW2  743   2.364   2.416   1.522 -0.4375  0.2521 -0.5066
  245SOL     OW  744   1.393   1.262   0.181  0.0980 -0.2518  0.2204
  245SOL    HW1  745   1.454   1.333   0.218 -0.3746 -0.7920  2.1313
  245SOL    HW2  746   1.428   1.172   0.206  1.1854 -0.8498 -2.9405
  246SOL     OW  747   2.388   0.865   0.689 -0.1644  0.5422 -0.0676
  246SOL    HW1  748   2.463   0.901   0.743  0.2273  2.0304 -1.5391
  246SOL    HW2  749   2.314   0.933   0.685 -2.1115 -1.2701  2.2100
  247SOL     OW  750   0.010   0.186   1.643 -0.3918  0.9314 -0.5174
  247SOL    HW1  751   0.031   0.160   1.549 -0.3162 -2.3267  0.2865
  247SOL    HW2  752   0.093   0.180   1.698 -1.1380 -1.1292  0.4831
  248SOL     OW  753   2.172   2.294   2.087  0.1401  0.3840  0.0346
  248SOL    HW1  754   2.114   2.367   2.050 -0.6756  0.5610  1.5587
  248SOL    HW2  755   2.215   2.326   2.172 -1.7578 -1.4976  1.7989
  249SOL     OW  756   1.645   0.671   0.765 -0.4011 -0.3170  0.0178
  249SOL    HW1  757   1.570   0.724   0.727  0.9951  0.5280 -1.7139
  249SOL    HW2  758   1.692   0.621   0.692  1.3413  0.0060  0.8485
  250SOL     OW  759   1.657   1.021   1.393  0.3155 -0.5759  0.1354
  250SOL    HW1  760   1.621   0.961   1.465  1.0654  0.3528  1.3084
  250SOL    HW2  761   1.720   0.969   1.335 -1.2572 -1.6725 -0.6753
  251SOL     OW  762   1.643   0.594   1.617  0.4181 -0.7331 -0.1873
  251SOL    HW1  763   1.564   0.534   1.604  1.0872 -1.3311 -1.7547
  251SOL    HW2  764   1.715   0.543   1.665  0.1988 -0.4843  0.4109
  252SOL     OW  765   2.224   1.234   0.054  0.0774  0.2344 -0.2118
  252SOL    HW1  766   2.318   1.237   0.088  0.3148 -0.2620 -0.8114
  252SOL    HW2  767   2.173   1.165   0.106 -0.0514  0.7361  0.3378
  253SOL     OW  768   0.952   1.435   1.575  0.0465  0.4372  0.4641
  253SOL    HW1  769   0.862   1.432   1.619 -0.3191  0.8624 -0.2430
  253SOL    HW2  770   1.008   1.360   1.610 -0.1191  0.9370  1.8809
  254SOL     OW  771   1.779   0.760   2.190 -0.1853  0.1051 -0.7741
  254SOL    HW1  772   1.825   0.671   2.180 -0.9990 -0.8304  2.7096
  254SOL    HW2  773   1.731   0.781   2.105  0.8148 -2.2950 -2.0521
  255SOL     OW  774   0.653   1.174   0.754  0.1284  0.2045 -0.3187
  255SOL    HW1  775   0.571   1.183   0.697  0.7831  0.8730 -1.1812
  255SOL    HW2  776   0.711   1.254   0.741  0.3389  0.3262  1.2439
  256SOL     OW  777   1.801   2.520   2.544  0.7184  0.2121 -0.1724
  256SOL    HW1  778   1.819   2.422   2.529 -0.4943  0.0352 -0.5365
  256SOL    HW2  779   1.712   2.532   2.587  1.0884  1.1458  0.3624
  257SOL     OW  780   2.392   0.400   2.128 -0.4433 -0.7499  0.5727
  257SOL    HW1  781   2.355   0.431   2.041 -1.3163  0.3743  1.3076
  257SOL    HW2  782   2.435   0.310   2.117 -0.5386 -0.6188 -0.9929
  258SOL     OW  783   1.555   1.408   0.330  0.5722  0.3595 -0.2191
  258SOL    HW1  784   1.500   1.477   0.378 -0.3501 -0.1640 -0.4939
  258SOL    HW2  785   1.647   1.443   0.316  0.2792  1.3165  0.1393
  259SOL     OW  786   2.307   1.428   2.265 -0.0082 -0.3225  0.1955
  259SOL    HW1  787   2.243   1.391   2.331 -1.6209  0.8876 -0.6105
  259SOL    HW2  788   2.257   1.461   2.185  1.5870  1.0119 -0.3175
  260SOL     OW  789   0.838   0.822   2.406  0.9310  0.4185 -0.1835
  260SOL    HW1  790   0.866   0.900   2.462 -1.2536  1.8393 -0.9559
  260SOL    HW2  791   0.844   0.846   2.309 -0.3781 -0.1197 -0.4171
  261SOL     OW  792   0.384   2.549   0.771  0.1741 -0.0902 -0.2630
  261SOL    HW1  793   0.378   2.629   0.712  0.3331 -0.5989 -0.9936
  261SOL    HW2  794   0.462   2.493   0.742  0.1526 -0.4321  0.3296
  262SOL     OW  795   0.727   0.278   0.620  0.6522  0.4447 -0.4338
  262SOL    HW1  796   0.763   0.266   0.712 -0.9867  0.3328  0.2212
  262SOL    HW2  797   0.698   0.373   0.608 -0.1403  0.2045 -0.4512
  263SOL     OW  798   0.741   1.832   2.436 -0.7307  0.0821 -0.1730
  263SOL    HW1  799   0.832   1.791   2.428 -0.3684  0.7598  0.2939
  263SOL    HW2  800   0.701   1.807   2.525 -0.4783  0.7650  0.1447
  264SOL     OW  801   1.381   1.679   2.149 -0.5437  0.2460 -0.3150
  264SOL    HW1  802   1.316   1.702   2.222  1.3321  0.8397  1.2412
  264SOL    HW2  803   1.430   1.595   2.172  1.0101  1.1445 -0.1984
  265SOL     OW  804   1.908   2.192   0.737  0.2627 -0.3130 -0.4049
  265SOL    HW1  805   1.894   2.283   0.776  1.0229 -0.0827 -0.6518
  265SOL    HW2  806   1.947   2.201   0.646  0.7413 -0.8940 -0.2610
  266SOL     OW  807   0.905   1.870   2.067 -0.2337  0.6223  0.3113
  266SOL    HW1  808   0.838   1.944   2.078  0.3922  1.4275 -1.0988
  266SOL    HW2  809   0.864   1.795   2.015 -0.6990  0.1782  1.2894
  267SOL     OW  810   2.569   1.288   2.188 -0.3510 -0.5655 -0.0038
  267SOL    HW1  811   2.551   1.205   2.136 -1.3458 -1.4187  1.6102
  267SOL    HW2  812   2.482   1.327   2.219  0.0931  1.1336 -0.7837
  268SOL     OW  813   0.748   0.158   2.400  0.4429 -0.4251 -0.2542
  268SOL    HW1  814   0.664   0.105   2.388  0.4217 -0.2767 -0.7733
  268SOL    HW2  815   0.809   0.143   2.323  0.2955  0.5555 -0.5711
  269SOL     OW  816   0.148   1.482   2.083  0.2955 -0.3740 -0.6361
  269SOL    HW1  817   0.079   1.431   2.133  1.3453 -2.0794 -0.8479
  269SOL    HW2  818   0.119   1.492   1.987 -1.6288  2.7371  0.1317
  270SOL     OW  819   1.472   0.882   0.641 -0.3081 -0.6449 -0.1586
  270SOL    HW1  820   1.431   0.928   0.563 -0.2317 -0.9752 -0.3932
  270SOL    HW2  821   1.504   0.950   0.707  1.1387 -0.2985 -1.1693
  271SOL     OW  822   2.255   2.388   2.353  0.2162 -0.4000 -0.0298
  271SOL    HW1  823   2.327   2.451   2.323 -0.2224  0.2994  0.3561
  271SOL    HW2  824   2.165   2.430   2.338 -0.0614 -0.6061  0.9296
  272SOL     OW  825   0.639   0.707   1.202 -0.1991 -0.1334 -0.2551
  272SOL    HW1  826   0.605   0.800   1.213  0.1038 -0.0842  0.2952
  272SOL    HW2  827   0.563   0.643   1.208 -0.5469  0.1286 -1.5725
  273SOL     OW  828   1.655   2.577   1.447  0.0167  0.1083  0.0934
  273SOL    HW1  829   1.748   2.590   1.412 -0.4015  0.0202 -1.0868
  273SOL    HW2  830   1.612   2.500   1.399 -1.0876  0.9073 -0.2312
  274SOL     OW  831   0.932   1.133   1.911 -0.5255  0.2182 -0.3681
  274SOL    HW1  832   0.972   1.142   2.002 -3.2384  0.8020  0.8990
  274SOL    HW2  833   0.890   1.043   1.901 -1.7260  0.7426 -0.3131
  275SOL     OW  834   0.549   0.664   2.157  0.3939  0.6522  0.6149
  275SOL    HW1  835   0.466   0.645   2.105  1.0414  3.7434 -1.8089
  275SOL    HW2  836   0.593   0.577   2.182 -2.0319 -1.0004 -0.4799
  276SOL     OW  837   0.895   2.432   0.422  0.5369  0.0183  0.1477
  276SOL    HW1  838   0.985   2.389   0.414  0.3757 -0.1691 -0.7173
  276SOL    HW2  839   0.825   2.370   0.388  0.1317  0.3830  0.3007
  277SOL     OW  840   2.043   0.368   2.313  0.4069 -0.1915 -0.3537
  277SOL    HW1  841   2.067   0.465   2.313 -0.2368 -0.0234 -0.7740
  277SOL    HW2  842   2.086   0.323   2.235  1.0519 -0.3407  0.0804
  278SOL     OW  843   0.722   2.529   0.906 -0.1525 -0.2089  0.1058
  278SOL    HW1  844   0.797   2.588   0.877 -0.1191  0.2309  1.0639
  278SOL    HW2  845   0.703   2.461   0.834  0.4400  0.3531 -0.5939
  279SOL     OW  846   1.968   0.642   0.261  0.1105 -0.1313  0.2187
  279SOL    HW1  847   1.886   0.695   0.238 -0.8962 -1.7529 -0.0640
  279SOL    HW2  848   2.032   0.644   0.184 -0.2541  0.0300 -0.0818
  280SOL     OW  849   0.102   0.644   1.445  0.1729 -0.2939 -0.2350
  280SOL    HW1  850   0.030   0.603   1.388 -1.3946  1.8571  0.0686
  280SOL    HW2  851   0.067   0.656   1.538  0.0046  2.9062 -0.6159
  281SOL     OW  852   2.339   0.893   0.250 -0.4928  0.2378  0.4542
  281SOL    HW1  853   2.353   0.904   0.151 -0.4158  0.1404  0.4547
  281SOL    HW2  854   2.399   0.956   0.299  1.3714 -1.5022  0.5155
  282SOL     OW  855   0.609   0.284   0.339  0.4726  0.3134 -0.2908
  282SOL    HW1  856   0.600   0.301   0.437 -1.0652  0.4415 -0.4235
  282SOL    HW2  857   0.654   0.196   0.325  1.8580  0.8756  0.4964
  283SOL     OW  858   1.781   1.960   0.868  0.0771  0.2853  0.3810
  283SOL    HW1  859   1.771   2.021   0.789  0.1792 -1.1314 -0.7803
  283SOL    HW2  860   1.877   1.930   0.874  0.1719  0.7414  1.3472
  284SOL     OW  861   2.081   0.610   1.477  0.4334 -0.1893 -0.6090
  284SOL    HW1  862   2.060   0.670   1.554 -0.4286 -1.5716  0.2552
  284SOL    HW2  863   2.167   0.562   1.495  0.3154 -0.3909 -0.5817
  285SOL     OW  864   0.364   1.809   1.540  0.2840  0.2133 -0.3456
  285SOL    HW1  865   0.374   1.905   1.567 -0.9001  0.2530  0.0328
  285SOL    HW2  866   0.356   1.752   1.622  2.0259 -0.3603 -0.5459
  286SOL     OW  867   2.439   1.581   0.569 -0.7180 -0.4638 -0.8825
  286SOL    HW1  868   2.381   1.579   0.650  1.0886 -0.7144  0.4616
  286SOL    HW2  869   2.420   1.663   0.516 -0.1814  1.0601  1.1575
  287SOL     OW  870   1.983   0.993   1.439 -0.0358 -0.5884  0.7341
  287SOL    HW1  871   1.948   0.937   1.364  0.1397  0.3476 -0.0709
  287SOL    HW2  872   2.071   0.957   1.469  0.3782 -0.3928 -0.2058
  288SOL     OW  873   1.822   0.461   2.466 -0.0674 -0.1358  0.7527
  288SOL    HW1  874   1.823   0.557   2.496 -1.3337  0.7602 -1.7321
  288SOL    HW2  875   1.904   0.441   2.414  0.1443 -0.3776  1.1759
  289SOL     OW  876   2.385   1.139   0.959 -0.1756 -0.1203  0.2482
  289SOL    HW1  877   2.439   1.107   0.881  1.5249  1.7820  0.5542
  289SOL    HW2  878   2.337   1.224   0.933 -2.3128 -1.2300  0.3052
  290SOL     OW  879   1.691   1.050   0.383  0.3235 -0.0291 -0.0459
  290SOL    HW1  880   1.615   0.989   0.364  1.1429 -0.4037 -2.3273
  290SOL    HW2  881   1.668   1.109   0.461 -1.7833 -0.9541  0.0721
  291SOL     OW  882   2.034   2.235   1.305 -0.2727 -0.3387 -0.3618
  291SOL    HW1  883   1.978   2.250   1.224 -0.6224 -0.2802 -0.1118
  291SOL    HW2  884   2.112   2.297   1.304  0.0384 -0.7371 -0.9414
  292SOL     OW  885   2.004   2.515   2.315  0.2734 -0.1660  0.1998
  292SOL    HW1  886   1.949   2.446   2.361  0.0704 -0.0455  0.1413
  292SOL    HW2  887   2.043   2.578   2.382 -0.1387  0.0951  0.2001
  293SOL     OW  888   2.114   1.725   1.001  1.1767 -0.3692  0.1917
  293SOL    HW1  889   2.033   1.691   1.048  0.9573 -0.8382 -0.5044
  293SOL    HW2  890   2.112   1.824   0.996  1.1317 -0.3218  1.0324
  294SOL     OW  891   2.368   0.272   0.017  0.1668  0.0871 -0.5349
  294SOL    HW1  892   2.396   0.324   0.099 -0.9493 -0.5480  0.2696
  294SOL    HW2  893   2.341   0.336  -0.055 -1.1621  0.6600  0.4353
  295SOL     OW  894   1.783   0.273   1.188  0.0849  0.8711 -0.1030
  295SOL    HW1  895   1.691   0.238   1.203  0.0641  0.3373 -1.3505
  295SOL    HW2  896   1.793   0.361   1.233 -1.2444  1.2237 -0.4513
  296SOL     OW  897   0.499   1.372   2.300  0.2786 -0.4534  0.1768
  296SOL    HW1  898   0.538   1.458   2.268  0.5767 -0.3119  0.9023
  296SOL    HW2  899   0.422   1.346   2.241 -0.4174  0.7764  0.5120
  297SOL     OW  900   1.539   0.138   1.184 -0.0121  0.4459  0.2974
  297SOL    HW1  901   1.512   0.042   1.182  1.7101 -0.0584  0.2619
  297SOL    HW2  902   1.457   0.195   1.175 -1.0069 -1.0067 -0.3164
  298SOL     OW  903   0.524   1.957   2.342  0.0450  0.1556 -0.6081
  298SOL    HW1  904   0.601   1.896   2.363  0.0053  0.7682  1.5832
  298SOL    HW2  905   0.477   1.924   2.260  0.8779 -1.9154 -0.3189
  299SOL     OW  906   1.688   0.252   0.157  0.0555  0.2806  0.0167
  299SOL    HW1  907   1.763   0.316   0.177  1.9406 -1.6605 -0.4644
  299SOL    HW2  908   1.688   0.232   0.059 -0.7625 -0.1551  0.1011
  300SOL     OW  909   0.851   0.996   0.693 -0.1597  0.0301 -0.1803
  300SOL    HW1  910   0.860   0.993   0.594 -0.9687 -0.5713 -0.2462
  300SOL    HW2  911   0.783   1.065   0.719 -0.1424  0.0017 -0.0567
  301SOL     OW  912   2.296   1.902   2.282 -0.3864 -0.2852 -0.0708
  301SOL    HW1  913   2.270   1.819   2.331  3.0095 -1.3752  0.0785
  301SOL    HW2  914   2.384   1.935   2.315  0.8008  0.4778 -3.5605
  302SOL     OW  915   2.308   2.239   1.001  0.0035 -0.0795  0.1754
  302SOL    HW1  916   2.312   2.298   0.920  1.7971 -0.8048 -0.2980
  302SOL    HW2  917   2.308   2.295   1.083 -2.2993  0.6894 -0.2797
  303SOL     OW  918   0.406   0.480   1.081 -0.3084 -0.1191 -0.6378
  303SOL    HW1  919   0.376   0.567   1.043 -0.7517 -0.4333 -1.0181
  303SOL    HW2  920   0.352   0.459   1.162  1.3099  1.0420  0.8211
  304SOL     OW  921   0.610   1.785   0.081 -0.0002 -0.3304 -0.0522
  304SOL    HW1  922   0.691   1.762   0.134  0.0751  1.5259  0.7069
  304SOL    HW2  923   0.541   1.827   0.140 -0.3480  0.7829 -1.2022
  305SOL     OW  924   1.844   1.982   2.333 -0.2836 -0.4934 -0.2488
  305SOL    HW1  925   1.775   1.988   2.261 -0.1489  0.1703 -0.3372
  305SOL    HW2  926   1.929   2.026   2.302 -0.5162  0.6397  0.6340
  306SOL     OW  927   1.380   1.038   0.437 -0.0051 -0.0611 -0.1122
  306SOL    HW1  928   1.351   1.125   0.478 -1.8847 -0.8553  0.3459
  306SOL    HW2  929   1.324   1.019   0.356 -0.0028 -1.1235  0.1279
  307SOL     OW  930   2.570   1.131   2.430  0.0791  0.0197 -0.1082
  307SOL    HW1  931   2.551   1.172   2.340  0.0310  3.9977  1.5053
  307SOL    HW2  932   2.658   1.165   2.464 -1.0517  0.7227  2.3578
  308SOL     OW  933   1.262   0.070   0.556  0.4179 -0.3536  0.3405
  308SOL    HW1  934   1.287   0.119   0.639  0.1306 -0.2797  0.3845
  308SOL    HW2  935   1.302   0.117   0.476  0.2305 -0.1092  0.3910
  309SOL     OW  936   2.547   2.207   2.098  0.4660  0.4523 -0.2914
  309SOL    HW1  937   2.629   2.185   2.150  0.7091  2.9960  0.5043
  309SOL    HW2  938   2.466   2.176   2.148  0.7921  1.0518  0.6167
  310SOL     OW  939   2.053   1.406   1.058 -0.5039  0.2885 -0.0285
  310SOL    HW1  940   2.137   1.459   1.069 -0.4271  0.2622 -0.4930
  310SOL    HW2  941   2.027   1.367   1.147 -0.5068  1.0125  0.2992
  311SOL     OW  942   1.691   0.094   0.960  0.3160 -0.2035 -0.0758
  311SOL    HW1  943   1.697  -0.003   0.938  1.0604 -0.3547  0.6897
  311SOL    HW2  944   1.664   0.104   1.056 -1.6456  0.3924 -0.6579
  312SOL     OW  945   2.478   0.460   1.323  0.4997 -0.3259 -0.2448
  312SOL    HW1  946   2.391   0.410   1.316 -0.6088  1.4468  0.0626
  312SOL    HW2  947   2.537   0.437   1.246 -0.4740 -1.1637 -0.7577
  313SOL     OW  948   2.515   2.044   1.877 -0.0352  0.1467  0.4105
  313SOL    HW1  949   2.592   2.002   1.830 -0.9262 -1.0216 -0.0575
  313SOL    HW2  950   2.549   2.106   1.949  1.3198 -0.8686  0.6772
  314SOL     OW  951   2.288   0.420   1.642  0.1667  0.9671  0.0422
  314SOL    HW1  952   2.311   0.440   1.738  2.0093  0.1703 -0.1832
  314SOL    HW2  953   2.333   0.486   1.583  0.9153  0.1165 -0.3647
  315SOL     OW  954   0.164   1.358   0.664 -0.3050  0.0384 -0.2935
  315SOL    HW1  955   0.195   1.315   0.579 -2.8462 -1.8344 -0.3733
  315SOL    HW2  956   0.183   1.297   0.741 -0.0983  0.7055  0.1987
  316SOL     OW  957   0.803   1.998   0.288  0.0571 -0.2252  0.3678
  316SOL    HW1  958   0.895   2.036   0.286  0.9200 -2.0300  2.2732
  316SOL    HW2  959   0.801   1.913   0.236 -0.8136  0.3114 -0.5012
  317SOL     OW  960   0.191   0.310   0.955 -0.2767 -0.3775  0.9439
  317SOL    HW1  961   0.101   0.320   0.997 -0.7947 -1.1843  0.0559
  317SOL    HW2  962   0.259   0.359   1.010 -1.3184  0.6300  1.3863
  318SOL     OW  963   1.929   1.918   1.270 -0.2974  0.2277 -0.1875
  318SOL    HW1  964   1.880   1.938   1.354  0.0432  1.4794 -0.2762
  318SOL    HW2  965   2.026   1.905   1.290 -0.7830 -4.7034  0.3997
  319SOL     OW  966   2.077   0.255   1.767 -0.0640 -0.2662 -0.1977
  319SOL    HW1  967   2.155   0.292   1.717  0.6055  0.4466  1.3208
  319SOL    HW2  968   2.032   0.186   1.711 -0.2620  1.5301 -2.3889
  320SOL     OW  969   2.258   0.656   0.359  0.4021  0.9470  0.4458
  320SOL    HW1  970   2.160   0.656   0.375  0.3640  0.5541  0.2134
  320SOL    HW2  971   2.287   0.746   0.326  0.4023  1.6214  2.1919
  321SOL     OW  972   0.809   0.247   1.303 -0.0480 -0.0552  0.1594
  321SOL    HW1  973   0.857   0.171   1.259 -0.1461 -0.1080  0.1436
  321SOL    HW2  974   0.755   0.297   1.235 -0.0225 -0.0013  0.1787
  322SOL     OW  975   0.897   2.399   1.080 -0.2927  0.0111  0.0740
  322SOL    HW1  976   0.799   2.417   1.067 -0.4928 -2.0293 -1.6883
  322SOL    HW2  977   0.933   2.349   1.001  2.0870  0.2638  0.9171
  323SOL     OW  978   1.350   1.022   1.704  0.3973  0.3474  0.6593
  323SOL    HW1  979   1.370   1.120   1.707  2.6495 -0.0480  0.8115
  323SOL    HW2  980   1.432   0.973   1.672 -0.4519 -1.5418  1.2535
  324SOL     OW  981   1.601   0.882   2.371 -0.0525  0.2567  0.0632
  324SOL    HW1  982   1.677   0.826   2.339 -0.0921  0.8628 -1.1302
  324SOL    HW2  983   1.533   0.823   2.415  1.1483 -0.2783  1.2953
  325SOL     OW  984   2.410   2.281   1.649  0.2228  0.4184 -0.0579
  325SOL    HW1  985   2.420   2.182   1.645  0.8430  0.4611  0.3797
  325SOL    HW2  986   2.425   2.313   1.743  0.5366  0.9805 -0.2918
  326SOL     OW  987   0.976   0.414   1.109  0.0056 -0.1229 -0.1648
  326SOL    HW1  988   0.953   0.495   1.161 -2.4895 -2.1713  2.2431
  326SOL    HW2  989   1.054   0.367   1.152 -0.8785 -0.8557  0.6673
  327SOL     OW  990   0.519   2.399   1.342  0.0760 -0.1158 -0.2104
  327SOL    HW1  991   0.486   2.494   1.343  0.3398 -0.0234 -0.2784
  327SOL    HW2  992   0.619   2.399   1.339  0.1214 -0.3855  0.8688
  328SOL     OW  993   1.202   1.003   1.065  0.8192 -0.0284  0.2377
  328SOL    HW1  994   1.277   0.942   1.092  0.0703 -0.5739  1.1718
  328SOL    HW2  995   1.129   0.948   1.023  0.9845  0.5106 -0.7647
  329SOL     OW  996   1.653   1.452   0.943  0.2340  0.7950  0.5817
  329SOL    HW1  997   1.575   1.430   0.884 -1.6574  0.9171  2.8507
  329SOL    HW2  998   1.652   1.391   1.023  2.3095  1.0273  0.8410
  330SOL     OW  999   1.756   1.576   1.774  0.0973 -0.0623  0.3299
  330SOL    HW1 1000   1.830   1.618   1.721  0.9785 -1.5482  0.3133
  330SOL    HW2 1001   1.786   1.562   1.868 -0.7037  0.6290  0.7007
  331SOL     OW 1002   2.260   1.416   1.615 -0.0352  0.0253  0.2468
  331SOL    HW1 1003   2.305   1.329   1.595 -2.3691 -0.9526 -1.0419
  331SOL    HW2 1004   2.259   1.473   1.533 -2.2995 -0.5456 -0.1680
  332SOL     OW 1005   2.316   0.537   1.897  0.2232  0.4222 -0.1340
  332SOL    HW1 1006   2.382   0.611   1.882  0.5407  0.2909  0.5878
  332SOL    HW2 1007   2.232   0.575   1.937  0.1099  0.4865 -0.4231
  333SOL     OW 1008   2.034   0.963   0.763  0.1387 -0.0454  0.4154
  333SOL    HW1 1009   2.109   1.015   0.721 -0.8641  0.1930 -1.1315
  333SOL    HW2 1010   2.013   0.883   0.707 -0.9382  0.0338  0.6947
  334SOL     OW 1011   1.369   2.455   0.910 -0.1018 -0.1294  0.1638
  334SOL    HW1 1012   1.339   2.378   0.966  0.2609 -0.5834 -0.2465
  334SOL    HW2 1013   1.466   2.442   0.887 -0.3699 -0.2007 -0.9585
  335SOL     OW 1014   1.182   1.383   0.294  0.3681 -0.2079 -0.1066
  335SOL    HW1 1015   1.143   1.352   0.381  0.4282  0.9569  0.3479
  335SOL    HW2 1016   1.266   1.332   0.275  0.6789 -0.0594  0.8242
  336SOL     OW 1017   2.510   2.137   0.308  0.5425 -0.3456  0.3674
  336SOL    HW1 1018   2.597   2.138   0.258  0.3629 -0.9399  0.0341
  336SOL    HW2 1019   2.435   2.127   0.243  0.3908 -2.9097  0.8358
  337SOL     OW 1020   1.428   2.450   1.952 -0.1252  1.2329  0.3388
  337SOL    HW1 1021   1.438   2.457   1.852 -0.4908 -0.8424  0.1222
  337SOL    HW2 1022   1.504   2.397   1.990 -2.2043 -1.7980  0.5513
  338SOL     OW 1023   1.418   1.130   1.941 -0.1201  0.1810  0.0564
  338SOL    HW1 1024   1.402   1.081   2.026 -0.4267  1.1629  0.5833
  338SOL    HW2 1025   1.419   1.066   1.865  0.3594 -0.7330  0.8160
  339SOL     OW 1026   0.587   1.611   2.225  0.0759  0.5166 -0.1825
  339SOL    HW1 1027   0.684   1.632   2.213 -0.0342  0.8910 -0.4680
  339SOL    HW2 1028   0.532   1.684   2.183 -0.3273  0.3114 -0.0178
  340SOL     OW 1029   1.830   0.074   1.910  0.3377 -0.6895  0.2080
  340SOL    HW1 1030   1.733   0.097   1.920  0.5105 -0.2708  1.0564
  340SOL    HW2 1031   1.886   0.148   1.950  0.9331 -2.3080  2.5699
  341SOL     OW 1032   0.630   0.763   1.796 -0.3129 -0.5907  1.4789
  341SOL    HW1 1033   0.602   0.750   1.701 -1.7165 -0.7784  1.8937
  341SOL    HW2 1034   0.687   0.685   1.824  2.0585  0.5627  0.1520
  342SOL     OW 1035   2.394   1.609   2.432  0.0551  0.3703 -0.0034
  342SOL    HW1 1036   2.374   1.540   2.363 -2.5555  2.8407 -1.8921
  342SOL    HW2 1037   2.494   1.617   2.443  0.4742 -2.6594 -0.6179
  343SOL     OW 1038   0.786   2.215   1.435 -0.2586  0.1519 -0.2965
  343SOL    HW1 1039   0.819   2.198   1.527  0.1075  0.5694 -0.3470
  343SOL    HW2 1040   0.782   2.129   1.384 -0.3009 -0.0536  0.0543
  344SOL     OW 1041   1.631   0.242   0.602 -0.2910 -0.1952 -0.0091
  344SOL    HW1 1042   1.604   0.230   0.698  0.6782 -0.1622  0.2693
  344SOL    HW2 1043   1.594   0.328   0.567 -0.5583 -0.1579  0.3605
  345SOL     OW 1044   1.177   1.951   2.072 -0.1564 -0.2899  0.3046
  345SOL    HW1 1045   1.083   1.927   2.046 -0.7207  1.1413  0.8479
  345SOL    HW2 1046   1.241   1.918   2.003 -1.1211 -0.8272 -0.3575
  346SOL     OW 1047   1.616   0.275   1.893  0.1287  0.2566  0.1003
  346SOL    HW1 1048   1.551   0.307   1.962 -0.1339  0.4729 -0.2423
  346SOL    HW2 1049   1.566   0.252   1.809  0.6966  2.4906 -0.9221
  347SOL     OW 1050   2.012   1.676   0.655  0.2601  0.0882  0.1192
  347SOL    HW1 1051   2.097   1.719   0.685 -0.0349 -0.3299  1.6140
  347SOL    HW2 1052   1.955   1.656   0.734 -0.2110 -1.8093 -0.6500
  348SOL     OW 1053   2.534   1.985   1.464 -0.1197 -0.4452 -0.2470
  348SOL    HW1 1054   2.463   1.977   1.393 -0.6495 -1.0243  0.3331
  348SOL    HW2 1055   2.594   2.062   1.442 -1.7690  0.9823 -0.0405
  349SOL     OW 1056   1.054   0.059   0.098  0.2499  0.4076 -0.6179
  349SOL    HW1 1057   1.051   0.136   0.162  0.6393 -1.2743  1.5420
  349SOL    HW2 1058   0.963   0.018   0.092  1.0640 -2.5067  3.0227
  350SOL     OW 1059   0.681   1.492   1.342 -0.3213  0.1871  0.5670
  350SOL    HW1 1060   0.656   1.492   1.439  0.7071  0.9961  0.8423
  350SOL    HW2 1061   0.780   1.506   1.333 -0.4155  0.1567 -0.6029
  351SOL     OW 1062   2.197   0.039   1.083  0.8229  0.5383 -0.0348
  351SOL    HW1 1063   2.250   0.124   1.078  0.7332  0.7303  1.7474
  351SOL    HW2 1064   2.100   0.060   1.074  0.7168  0.7876  1.4496
  352SOL     OW 1065   1.687   1.104   2.535  0.2461 -0.2149 -0.3768
  352SOL    HW1 1066   1.659   1.187   2.487 -0.7107  0.6794  1.6275
  352SOL    HW2 1067   1.676   1.025   2.474  0.3680  0.9946 -2.0394
  353SOL     OW 1068   2.086   2.332   1.721 -0.1452 -0.5403 -0.1730
  353SOL    HW1 1069   2.039   2.283   1.648 -0.3729  1.4057 -1.4304
  353SOL    HW2 1070   2.183   2.308   1.720 -0.5721 -2.4139  0.5535
  354SOL     OW 1071   1.789   1.549   0.552 -0.6445 -0.3856  0.0462
  354SOL    HW1 1072   1.810   1.516   0.460  0.6995 -4.3478  1.5625
  354SOL    HW2 1073   1.853   1.621   0.576 -0.6897  0.3710 -1.8677
  355SOL     OW 1074   0.895   1.944   0.751  0.3613  0.3970  0.3747
  355SOL    HW1 1075   0.886   1.896   0.664 -0.7413 -0.4421  0.9298
  355SOL    HW2 1076   0.959   1.895   0.810  2.1156  1.6475 -0.3742
  356SOL     OW 1077   1.036   2.230   1.264  0.3652  0.3454 -0.3363
  356SOL    HW1 1078   0.999   2.237   1.357  0.5919 -0.9958 -0.1237
  356SOL    HW2 1079   0.974   2.275   1.200 -0.1859  0.6080  0.3687
  357SOL     OW 1080   2.163   2.001   0.063 -0.1262  0.2573  0.2196
  357SOL    HW1 1081   2.209   1.914   0.077 -0.2666  0.1167 -0.1772
  357SOL    HW2 1082   2.092   2.013   0.133 -0.9227 -0.5038 -0.4341
  358SOL     OW 1083   1.826   0.178   2.196 -0.5718 -0.0456 -0.0800
  358SOL    HW1 1084   1.738   0.152   2.235 -0.8617  1.6646  0.5015
  358SOL    HW2 1085   1.885   0.215   2.268  0.4274 -0.6451 -0.5645
  359SOL     OW 1086   0.823   2.074   2.400  0.1710  0.4200  0.0024
  359SOL    HW1 1087   0.785   1.982   2.402  0.2949  0.3525 -0.5041
  359SOL    HW2 1088   0.918   2.072   2.432  0.9686 -0.0429 -2.1701
  360SOL     OW 1089   0.624   1.752   1.006 -0.1532  0.4682 -0.0585
  360SOL    HW1 1090   0.679   1.831   1.033  0.2849 -0.2106  1.0918
  360SOL    HW2 1091   0.542   1.747   1.063  0.1821 -0.3008  0.3782
  361SOL     OW 1092   0.441   0.959   1.845 -0.2118 -0.2862 -0.4749
  361SOL    HW1 1093   0.516   0.897   1.822  1.3265  1.0093  0.7783
  361SOL    HW2 1094   0.393   0.924   1.926  0.6896  0.1435  0.2673
  362SOL     OW 1095   0.904   1.843   0.509 -0.2038 -0.0615 -0.1351
  362SOL    HW1 1096   0.874   1.899   0.432  2.1647  0.8045 -0.5131
  362SOL    HW2 1097   0.927   1.751   0.478 -1.3152 -0.3837 -0.0396
  363SOL     OW 1098   2.144   0.439   0.679 -0.1311 -0.4740 -0.3758
  363SOL    HW1 1099   2.174   0.344   0.681  0.7126 -0.2049  0.7161
  363SOL    HW2 1100   2.216   0.497   0.642 -0.0482 -0.0741  0.3902
  364SOL     OW 1101   0.405   0.736   0.940  0.0439 -0.3885  0.5461
  364SOL    HW1 1102   0.320   0.788   0.947 -0.3185 -0.6970 -1.0866
  364SOL    HW2 1103   0.478   0.796   0.909 -0.2714 -0.7142 -0.8975
  365SOL     OW 1104   1.430   0.229   1.669 -0.2927  0.0711 -0.1607
  365SOL    HW1 1105   1.454   0.224   1.572 -1.3030 -0.6194 -0.3858
  365SOL    HW2 1106   1.333   0.251   1.678 -0.6820 -1.8531  0.6614
  366SOL     OW 1107   1.204   2.010   0.603  0.5183  0.1510 -0.0165
  366SOL    HW1 1108   1.238   2.069   0.531 -1.9995  2.9969  0.9295
  366SOL    HW2 1109   1.150   1.936   0.563  1.7258 -0.1670 -1.1189
  367SOL     OW 1110   0.275   0.281   1.700 -0.1144 -0.1322 -0.0229
  367SOL    HW1 1111   0.307   0.253   1.610  0.3634 -0.5467  0.2728
  367SOL    HW2 1112   0.352   0.286   1.764 -0.3180  0.9485  0.1718
  368SOL     OW 1113   0.767   1.655   1.918  0.6731  0.1015 -0.0404
  368SOL    HW1 1114   0.849   1.598   1.924  0.1276 -0.7169 -0.1814
  368SOL    HW2 1115   0.717   1.634   1.834  0.5397  0.9086 -0.1728
  369SOL     OW 1116   1.838   0.441   1.773  0.2308  0.5174  0.5250
  369SOL    HW1 1117   1.915   0.378   1.763 -1.5926 -1.5913 -1.4210
  369SOL    HW2 1118   1.766   0.397   1.826 -1.2169  0.7611 -1.1433
  370SOL     OW 1119   2.116   1.329   2.419 -0.2739  0.2885 -0.0914
  370SOL    HW1 1120   2.056   1.408   2.420  2.6458  2.6999  0.9914
  370SOL    HW2 1121   2.162   1.320   2.508  3.1953  0.5708 -1.6697
  371SOL     OW 1122   0.454   2.585   0.472  0.2972  0.0507  0.6726
  371SOL    HW1 1123   0.540   2.581   0.420  1.1091 -0.9037  2.0232
  371SOL    HW2 1124   0.446   2.675   0.515  0.2359  0.4140 -0.0940
  372SOL     OW 1125   1.104   2.097   2.516 -0.6178  0.3933  0.3823
  372SOL    HW1 1126   1.118   2.041   2.597 -1.5225 -1.2579 -0.5427
  372SOL    HW2 1127   1.115   2.193   2.539 -0.2608 -0.0814  2.3120
  373SOL     OW 1128   1.334   0.249   0.772  0.1816  0.4024  0.4847
  373SOL    HW1 1129   1.410   0.271   0.834  0.4412 -0.2687  0.4094
  373SOL    HW2 1130   1.276   0.330   0.761  0.1989  0.5693  1.5105
  374SOL     OW 1131   0.999   0.370   0.542 -0.0983  0.0509 -0.0058
  374SOL    HW1 1132   1.013   0.274   0.519 -0.0848  0.2796 -1.0297
  374SOL    HW2 1133   0.901   0.388   0.553 -0.1570  0.0592 -0.5104
  375SOL     OW 1134   1.532   1.444   2.162 -0.2396  0.3079  0.3903
  375SOL    HW1 1135   1.582   1.402   2.086 -0.0375  0.3940  0.4739
  375SOL    HW2 1136   1.586   1.436   2.246  0.5701  2.1978  0.0979
  376SOL     OW 1137   1.472   1.406   0.757  0.1319 -0.3584 -0.6556
  376SOL    HW1 1138   1.374   1.404   0.775  0.0669 -0.9644 -1.0386
  376SOL    HW2 1139   1.490   1.360   0.670  0.8380 -0.9581 -0.1974
  377SOL     OW 1140   0.811   1.203   2.288 -0.4371  0.5044 -0.2993
  377SOL    HW1 1141   0.775   1.293   2.263 -1.2967 -0.0917 -1.2628
  377SOL    HW2 1142   0.872   1.170   2.217  0.4745  0.6340  0.4032
  378SOL     OW 1143   1.215   0.927   2.144  0.4781 -0.2496 -0.1821
  378SOL    HW1 1144   1.308   0.953   2.168  0.1801  0.5508  0.1373
  378SOL    HW2 1145   1.191   0.842   2.190  0.8962 -0.2252  0.0861
  379SOL     OW 1146   1.631   1.941   1.720 -0.9061 -0.1967  0.1770
  379SOL    HW1 1147   1.691   1.896   1.654 -0.7346 -0.0875  0.2574
  379SOL    HW2 1148   1.645   1.901   1.810  0.5018  1.1466  0.6062
  380SOL     OW 1149   1.935   2.019   1.945 -0.0987 -0.3000 -0.0339
  380SOL    HW1 1150   2.017   1.984   1.990  0.5290  1.7391  0.5013
  380SOL    HW2 1151   1.856   1.961   1.969  0.6638 -0.6707  1.7278
  381SOL     OW 1152   0.919   2.428   2.375  0.2687 -0.5279  0.0349
  381SOL    HW1 1153   1.012   2.402   2.400  0.2048  0.4616  1.4364
  381SOL    HW2 1154   0.855   2.386   2.440 -0.1238  0.0727  0.0420
  382SOL     OW 1155   1.239   2.443   2.334  0.1058  0.8064 -0.3061
  382SOL    HW1 1156   1.219   2.400   2.422 -2.1607  2.3817  0.0609
  382SOL    HW2 1157   1.260   2.540   2.349  1.9960  0.6005 -1.3468
  383SOL     OW 1158   1.891   1.222   0.769 -0.3376  0.0884  0.0647
  383SOL    HW1 1159   1.937   1.134   0.778 -1.4700 -0.3702  1.9338
  383SOL    HW2 1160   1.959   1.295   0.767  0.5548 -0.6910  0.8416
  384SOL     OW 1161   0.354   2.106   1.931 -0.2249 -0.1660  0.2364
  384SOL    HW1 1162   0.300   2.023   1.945  1.1203 -1.1310 -0.1464
  384SOL    HW2 1163   0.388   2.139   2.019 -0.0279 -0.5347  0.3020
  385SOL     OW 1164   0.484   2.224   2.468  0.3315  0.2191 -0.0296
  385SOL    HW1 1165   0.457   2.282   2.390  1.0129  1.2010  0.4396
  385SOL    HW2 1166   0.486   2.128   2.439  0.4133  0.5484 -1.1811
  386SOL     OW 1167   2.548   2.146   0.772 -0.3763  0.2475  0.3356
  386SOL    HW1 1168   2.567   2.123   0.677 -1.2967 -1.1980  0.4753
  386SOL    HW2 1169   2.599   2.229   0.797  0.3447  0.3086 -1.2174
  387SOL     OW 1170   1.947   1.021   2.182 -0.0679  0.2683  0.0658
  387SOL    HW1 1171   2.034   1.021   2.231 -0.5372  0.8109  0.9191
  387SOL    HW2 1172   1.900   0.934   2.197 -0.0094  0.2634  0.2237
  388SOL     OW 1173   1.816   1.303   2.205 -0.0891  0.0797 -0.3789
  388SOL    HW1 1174   1.881   1.227   2.215  0.9180  0.8373 -0.9710
  388SOL    HW2 1175   1.763   1.291   2.121 -0.6737 -0.4989  0.0640
  389SOL     OW 1176   0.784   2.514   1.970 -0.0460  0.6250  0.4104
  389SOL    HW1 1177   0.746   2.595   1.925 -0.9620  0.5533  1.0369
  389SOL    HW2 1178   0.833   2.541   2.052  1.2578  0.7125 -0.3707
  390SOL     OW 1179   1.691   1.490   1.496  0.5246 -0.6247  0.6169
  390SOL    HW1 1180   1.592   1.498   1.486  0.4019 -1.8505  0.7439
  390SOL    HW2 1181   1.715   1.497   1.593  0.6979  0.8537  0.4925
  391SOL     OW 1182   1.142   0.857   1.802  0.1010 -0.4052 -0.2260
  391SOL    HW1 1183   1.211   0.904   1.747 -1.0194  1.0064 -0.4845
  391SOL    HW2 1184   1.163   0.867   1.899 -0.6855  1.6431 -0.2191
  392SOL     OW 1185   1.418   1.057   1.292 -0.1764 -0.2454 -0.0290
  392SOL    HW1 1186   1.418   0.990   1.217  1.3019  0.1571 -0.4253
  392SOL    HW2 1187   1.503   1.049   1.344 -1.3277 -0.7581  1.8722
  393SOL     OW 1188   1.648   2.030   2.516  0.0511  0.2722  0.3701
  393SOL    HW1 1189   1.717   2.021   2.444 -0.9238 -0.7724 -0.4610
  393SOL    HW2 1190   1.687   2.080   2.593  1.6830 -0.1365 -0.1544
  394SOL     OW 1191   0.936   0.621   0.869  0.8015 -0.0380 -0.3353
  394SOL    HW1 1192   0.947   0.718   0.890  0.2530  0.0685 -0.5365
  394SOL    HW2 1193   0.841   0.594   0.883  1.1655 -0.7975  0.7437
  395SOL     OW 1194   0.962   1.548   1.331 -0.3219  0.2791  0.7359
  395SOL    HW1 1195   1.020   1.517   1.255 -2.0587  0.1392 -0.5944
  395SOL    HW2 1196   0.962   1.480   1.404 -0.8982 -0.9595 -0.3931
  396SOL     OW 1197   0.615   1.991   0.633 -0.0326  0.1266  0.0839
  396SOL    HW1 1198   0.697   2.000   0.689  0.4953 -1.7272 -0.3146
  396SOL    HW2 1199   0.638   2.012   0.538 -0.3782  0.9954  0.1831
  397SOL     OW 1200   0.559   2.384   2.048 -0.2901 -0.2245  0.4798
  397SOL    HW1 1201   0.601   2.448   1.984  1.5566 -1.5021  0.3414
  397SOL    HW2 1202   0.629   2.328   2.092 -1.7571 -1.5873  1.2340
  398SOL     OW 1203   1.418   1.613   0.459  0.1239  0.2934  0.1507
  398SOL    HW1 1204   1.333   1.635   0.507 -0.4531 -0.4198 -0.5146
  398SOL    HW2 1205   1.471   1.696   0.445 -0.5729  0.7847  0.3683
  399SOL     OW 1206   0.705   2.229   0.223  0.4217  0.5353 -0.0140
  399SOL    HW1 1207   0.735   2.134   0.230  0.9500  0.7874  1.2957
  399SOL    HW2 1208   0.721   2.262   0.129  0.3928 -0.6001 -0.4333
  400SOL     OW 1209   1.114   1.900   2.340 -0.3531  0.6048  0.2398
  400SOL    HW1 1210   1.123   1.930   2.245 -1.6098  2.4431  0.6460
  400SOL    HW2 1211   1.121   1.979   2.401 -2.4389 -0.0812  1.4777
  401SOL     OW 1212   2.488   0.856   1.965 -0.2705 -0.1148  0.1220
  401SOL    HW1 1213   2.568   0.826   1.912 -0.6879 -0.2178 -0.4649
  401SOL    HW2 1214   2.483   0.804   2.050  0.1026 -0.3472  0.0067
  402SOL     OW 1215   2.332   1.396   0.854  0.0767  0.0149 -0.5143
  402SOL    HW1 1216   2.341   1.495   0.861 -0.3917  0.0229  0.0558
  402SOL    HW2 1217   2.261   1.373   0.787 -0.8569  0.1012  0.4279
  403SOL     OW 1218   0.417   0.625   0.052  0.2977 -0.0713 -0.1368
  403SOL    HW1 1219   0.469   0.671  -0.019  1.2982  0.4711  0.9141
  403SOL    HW2 1220   0.389   0.691   0.121  0.7909 -0.8391  0.8277
  404SOL     OW 1221   0.838   1.389   0.755  0.4358 -0.0137  0.2510
  404SOL    HW1 1222   0.855   1.365   0.851  0.3245 -1.7431 -0.1189
  404SOL    HW2 1223   0.916   1.358   0.699  0.1871  0.3326 -0.2960
  405SOL     OW 1224   1.089   1.236   1.675  0.1341  0.0562  0.1402
  405SOL    HW1 1225   1.120   1.279   1.759  0.7965  0.3721 -0.2593
  405SOL    HW2 1226   1.155   1.166   1.647 -0.9100 -1.2170  0.7636
  406SOL     OW 1227   1.186   1.441   2.492  0.3961  0.2373  0.0917
  406SOL    HW1 1228   1.132   1.390   2.559 -0.1793  1.4428  0.5828
  406SOL    HW2 1229   1.273   1.395   2.477  0.2625 -0.4063  1.1870
  407SOL     OW 1230   2.519   1.082   1.451 -0.0344  0.5824  0.1562
  407SOL    HW1 1231   2.482   1.151   1.388  0.4610  1.6240  0.9848
  407SOL    HW2 1232   2.574   1.016   1.399 -1.8710 -0.2045 -0.9004
  408SOL     OW 1233   0.411   1.477   1.982 -0.3455  0.3950  0.1298
  408SOL    HW1 1234   0.324   1.476   2.031 -0.0521 -1.1846  0.6512
  408SOL    HW2 1235   0.481   1.521   2.039 -0.4286  0.2183  0.3696
  409SOL     OW 1236   2.239   0.896   1.502 -0.1773  0.1409 -0.4425
  409SOL    HW1 1237   2.279   0.804   1.498 -0.0639  0.1936 -0.5368
  409SOL    HW2 1238   2.308   0.960   1.535 -0.4831  0.0662  0.3536
  410SOL     OW 1239   1.795   1.203   0.187 -0.4888 -0.1465 -0.2449
  410SOL    HW1 1240   1.757   1.168   0.101 -1.1474  0.5661 -0.2549
  410SOL    HW2 1241   1.764   1.146   0.263 -1.0322  0.0167 -0.3353
  411SOL     OW 1242   0.430   1.230   1.034  0.2427  0.0033  0.0287
  411SOL    HW1 1243   0.432   1.292   1.113  0.9548  0.0461 -0.0222
  411SOL    HW2 1244   0.519   1.229   0.990  0.6478 -2.0645  0.7987
  412SOL     OW 1245   2.252   0.300   1.313 -0.1150 -0.4213  0.4980
  412SOL    HW1 1246   2.207   0.220   1.353 -0.8720 -1.5335 -2.3173
  412SOL    HW2 1247   2.184   0.357   1.265  0.1351  2.8351  3.6056
  413SOL     OW 1248   0.221   1.850   1.942  0.7825 -0.1719 -0.0262
  413SOL    HW1 1249   0.191   1.865   1.848  1.9506 -0.4200 -0.4496
  413SOL    HW2 1250   0.142   1.821   1.998 -0.3609  1.9455 -0.4343
  414SOL     OW 1251   2.336   2.376   0.418  0.0023 -0.3166  0.0654
  414SOL    HW1 1252   2.348   2.277   0.424  0.1626 -0.2261  1.3099
  414SOL    HW2 1253   2.249   2.396   0.373  0.1863 -1.0124 -0.6242
  415SOL     OW 1254   1.703   1.249   0.588  0.6519  0.2838  0.1124
  415SOL    HW1 1255   1.719   1.344   0.561 -0.3313 -0.0939 -2.0762
  415SOL    HW2 1256   1.769   1.221   0.657  0.1178  2.9411  1.8079
  416SOL     OW 1257   2.164   1.850   1.420 -0.3273 -0.1356  0.0872
  416SOL    HW1 1258   2.240   1.885   1.365  0.0441  0.8196  1.1469
  416SOL    HW2 1259   2.185   1.863   1.517 -1.7234 -0.1064  0.4102
  417SOL     OW 1260   0.369   2.393   2.232 -0.4717 -0.4517 -0.1777
  417SOL    HW1 1261   0.411   2.381   2.142 -2.6637  0.2023 -1.3679
  417SOL    HW2 1262   0.295   2.326   2.243 -0.9787  0.2297  0.6335
  418SOL     OW 1263   1.903   0.503   2.084 -0.2414  0.1315  0.7223
  418SOL    HW1 1264   1.968   0.571   2.050 -0.2387 -0.3720 -0.3101
  418SOL    HW2 1265   1.937   0.412   2.063 -1.4424 -0.1327 -0.1426
  419SOL     OW 1266   2.573   1.943   2.367  0.1362  0.0196 -0.1813
  419SOL    HW1 1267   2.572   1.872   2.438  1.3420 -2.0908 -2.1414
  419SOL    HW2 1268   2.668   1.967   2.346 -0.1832  0.3206 -1.3351
  420SOL     OW 1269   0.133   0.082   0.374  0.5126  0.1744 -0.0277
  420SOL    HW1 1270   0.084   0.000   0.342 -0.6261  0.9329 -0.3040
  420SOL    HW2 1271   0.200   0.056   0.443 -2.2064 -0.6573  2.4995
  421SOL     OW 1272   1.785   1.617   2.119 -0.1427  0.3259 -0.3136
  421SOL    HW1 1273   1.690   1.594   2.139 -0.5891  0.1495 -2.4104
  421SOL    HW2 1274   1.842   1.535   2.128 -0.5884 -0.0968 -1.2048
  422SOL     OW 1275   1.284   1.183   0.853  0.1270  0.4638 -0.5660
  422SOL    HW1 1276   1.246   1.115   0.915 -1.0732 -0.0581 -1.8351
  422SOL    HW2 1277   1.382   1.166   0.841 -0.3602 -1.8013 -1.7625
  423SOL     OW 1278   0.229   1.258   2.378 -0.1155 -0.1557 -0.2445
  423SOL    HW1 1279   0.275   1.281   2.463  0.1812 -0.2360 -0.3841
  423SOL    HW2 1280   0.152   1.320   2.364  2.1489  2.5155 -1.8935
  424SOL     OW 1281   0.356   2.096   0.493  0.1865 -0.2036  0.3630
  424SOL    HW1 1282   0.340   2.084   0.591 -0.0586  2.4664  0.7321
  424SOL    HW2 1283   0.450   2.128   0.478 -0.1377  0.5508 -0.1275
  425SOL     OW 1284   1.878   0.155   0.679 -0.1682 -0.1688  0.6102
  425SOL    HW1 1285   1.883   0.217   0.757 -1.4401 -0.7901  1.2138
  425SOL    HW2 1286   1.797   0.177   0.624  0.8973  0.4907 -0.7657
  426SOL     OW 1287   2.273   1.256   0.388 -0.0739  0.2346 -0.2488
  426SOL    HW1 1288   2.323   1.317   0.327 -1.2881  0.1115 -1.4263
  426SOL    HW2 1289   2.181   1.241   0.351 -0.8855  0.2268  1.6766
  427SOL     OW 1290   0.347   2.208   1.324 -0.4058  0.3517  0.1039
  427SOL    HW1 1291   0.358   2.121   1.276 -0.2296 -0.0167  0.7960
  427SOL    HW2 1292   0.433   2.259   1.321 -0.5680  0.5993 -0.4773
  428SOL     OW 1293   0.888   1.053   1.508 -0.5810  0.1763  0.3862
  428SOL    HW1 1294   0.980   1.094   1.511  0.0274 -1.0403 -0.6621
  428SOL    HW2 1295   0.853   1.046   1.602  1.2035 -1.0603  1.0251
  429SOL     OW 1296   1.589   1.985   2.218  0.3785  0.1642  0.4502
  429SOL    HW1 1297   1.593   1.986   2.318  0.4800 -1.5567  0.5021
  429SOL    HW2 1298   1.507   2.032   2.187  0.3826  0.7829  1.3331
  430SOL     OW 1299   0.099   1.439   0.272 -0.3410 -0.8295  0.7270
  430SOL    HW1 1300   0.116   1.533   0.299 -2.2747 -0.5771  1.2256
  430SOL    HW2 1301   0.001   1.420   0.278 -0.0223 -2.7968  0.3762
  431SOL     OW 1302   0.056   1.787   1.330 -0.4338  0.6458  0.1917
  431SOL    HW1 1303   0.130   1.826   1.275 -0.2809  1.5996  1.0369
  431SOL    HW2 1304   0.021   1.856   1.393 -1.4392 -0.0621  0.4369
  432SOL     OW 1305   2.452   0.195   0.349 -0.7160  0.7392 -0.4649
  432SOL    HW1 1306   2.443   0.285   0.308  0.3277  0.3022 -1.7288
  432SOL    HW2 1307   2.547   0.181   0.378 -1.0204  0.3051  0.3748
  433SOL     OW 1308   0.575   2.281   0.441 -0.2218  0.5391  0.4345
  433SOL    HW1 1309   0.606   2.248   0.351 -1.0228  0.3235  0.2266
  433SOL    HW2 1310   0.544   2.376   0.432 -3.2914 -0.4036 -0.2843
  434SOL     OW 1311   2.007   0.711   1.738 -0.3861 -0.3509  0.4313
  434SOL    HW1 1312   1.997   0.612   1.743 -0.5217 -0.3447  0.2792
  434SOL    HW2 1313   2.094   0.738   1.779  0.3256 -0.6664 -0.8132
  435SOL     OW 1314   1.658   0.841   1.961 -0.7036 -0.5724 -0.3609
  435SOL    HW1 1315   1.732   0.872   1.900  0.5545  1.1773  1.8651
  435SOL    HW2 1316   1.623   0.753   1.930  1.4020 -0.8171 -2.2889
  436SOL     OW 1317   0.864   1.264   1.021  0.2721 -0.6074  0.0654
  436SOL    HW1 1318   0.842   1.192   1.087 -4.0672 -3.0357 -3.4579
  436SOL    HW2 1319   0.800   1.340   1.033 -0.0346 -0.7227 -0.7476
  437SOL     OW 1320   1.924   1.451   1.324 -0.0527  0.4282  0.1314
  437SOL    HW1 1321   1.839   1.412   1.358 -1.2061 -0.4333 -3.3208
  437SOL    HW2 1322   1.904   1.535   1.272  1.5416  1.5271  1.1976
  438SOL     OW 1323   2.342   1.655   0.865  0.2896 -0.2801 -0.2658
  438SOL    HW1 1324   2.387   1.739   0.835 -2.2070  0.5378 -1.9702
  438SOL    HW2 1325   2.265   1.677   0.925 -1.5668 -1.1212 -2.2129
  439SOL     OW 1326   2.390   2.565   0.605 -0.3161 -0.7749  0.3356
  439SOL    HW1 1327   2.372   2.490   0.541  0.4731 -2.7954  2.3433
  439SOL    HW2 1328   2.484   2.597   0.594 -0.2512 -0.9657  0.3347
  440SOL     OW 1329   1.559   0.980   0.141 -0.0927  0.3088 -0.0146
  440SOL    HW1 1330   1.475   0.930   0.124 -0.4910  1.3339 -1.2374
  440SOL    HW2 1331   1.584   1.032   0.059  1.2944  0.6511  0.5931
  441SOL     OW 1332   0.231   2.470   1.379 -0.0389 -0.5461  0.0470
  441SOL    HW1 1333   0.315   2.419   1.359 -2.1276 -4.2153 -0.1315
  441SOL    HW2 1334   0.195   2.442   1.468 -2.3882 -1.0559 -0.9823
  442SOL     OW 1335   1.167   2.108   0.837  0.8221 -0.5940 -0.5584
  442SOL    HW1 1336   1.173   2.066   0.746 -1.9013 -1.1012 -0.5715
  442SOL    HW2 1337   1.085   2.165   0.843  1.6705  0.5480  1.1764
  443SOL     OW 1338   1.153   1.530   1.111  0.3693  0.0860  0.5135
  443SOL    HW1 1339   1.131   1.434   1.095  1.9572 -0.2691  0.2939
  443SOL    HW2 1340   1.252   1.540   1.125  0.7480  2.0887 -2.6046
  444SOL     OW 1341   0.075   0.110   1.376 -0.3284  0.3205 -0.2294
  444SOL    HW1 1342   0.015   0.138   1.302 -0.4840  1.4430  0.2962
  444SOL    HW2 1343   0.117   0.022   1.354 -0.1127  0.7837 -1.7934
  445SOL     OW 1344   0.311   1.010   2.263  0.3931  0.1983  0.9018
  445SOL    HW1 1345   0.289   1.088   2.321  0.3936 -0.1265  1.3526
  445SOL    HW2 1346   0.411   0.999   2.259  0.3851  0.0361  1.0994
  446SOL     OW 1347   1.872   2.286   1.910 -0.6146 -0.1791  0.1739
  446SOL    HW1 1348   1.946   2.330   1.858 -0.6531 -1.2362 -0.8095
  446SOL    HW2 1349   1.897   2.191   1.928 -1.0823 -0.1185  1.1703
  447SOL     OW 1350   0.998   1.387   0.097  0.2967 -0.3408  0.6970
  447SOL    HW1 1351   0.910   1.387   0.144  0.8984 -0.2322  1.8592
  447SOL    HW2 1352   1.072   1.383   0.164  1.2011  0.4128 -0.2144
  448SOL     OW 1353   1.444   0.394   1.149 -0.0079  0.1574  0.1316
  448SOL    HW1 1354   1.377   0.463   1.124 -3.7217 -2.9157  0.6031
  448SOL    HW2 1355   1.492   0.362   1.067 -0.0360  1.5098 -0.4306
  449SOL     OW 1356   0.460   0.086   1.233  0.8010  0.4855 -0.0163
  449SOL    HW1 1357   0.515   0.157   1.189 -0.0929  0.2399 -1.5956
  449SOL    HW2 1358   0.403   0.040   1.165 -0.6058  0.0363  1.3964
  450SOL     OW 1359   1.814   1.137   1.601 -0.5858 -0.1886  0.1209
  450SOL    HW1 1360   1.869   1.070   1.551 -0.2811  0.0209  0.1724
  450SOL    HW2 1361   1.729   1.155   1.551 -2.1562 -2.9154  1.5880
  451SOL     OW 1362   1.929   0.394   0.809  0.6173 -0.7675  0.1175
  451SOL    HW1 1363   1.893   0.472   0.861 -2.4115 -1.4050 -0.8157
  451SOL    HW2 1364   2.014   0.420   0.764 -0.5898  2.2593 -0.6846
  452SOL     OW 1365   2.025   2.001   0.289  0.2315  0.8775  0.2473
  452SOL    HW1 1366   1.938   2.039   0.321 -0.4595 -0.2284 -0.2334
  452SOL    HW2 1367   2.073   1.959   0.366 -0.0315  0.8099  0.3762
  453SOL     OW 1368   0.848   0.700   1.621 -0.2630  0.1903  0.5811
  453SOL    HW1 1369   0.915   0.717   1.548  0.7466  1.9629  1.8556
  453SOL    HW2 1370   0.756   0.709   1.583  0.1699 -1.5406 -1.0364
  454SOL     OW 1371   1.569   0.869   1.627  0.0897  0.3036  0.0520
  454SOL    HW1 1372   1.585   0.773   1.604 -0.6202 -0.1159  1.2173
  454SOL    HW2 1373   1.648   0.905   1.676  1.7951  1.3221 -3.1391
  455SOL     OW 1374   1.490   0.429   0.202 -0.0090  0.5291  0.1526
  455SOL    HW1 1375   1.572   0.375   0.185  0.3892  1.3984 -0.8016
  455SOL    HW2 1376   1.509   0.496   0.274  0.1969  0.8869 -0.2323
  456SOL     OW 1377   0.898   1.798   1.121 -0.0638  0.1184 -0.3200
  456SOL    HW1 1378   0.914   1.723   1.186 -0.1268 -1.6583 -2.2408
  456SOL    HW2 1379   0.971   1.798   1.053 -0.4821  1.3474 -0.7881
  457SOL     OW 1380   0.752   1.427   0.238  0.0119  0.2028  0.3743
  457SOL    HW1 1381   0.700   1.506   0.269  1.5240  1.7368 -0.7938
  457SOL    HW2 1382   0.690   1.354   0.212 -1.3910  0.3375  3.0391
  458SOL     OW 1383   2.305   0.920   2.548  0.3254 -0.3160 -0.0364
  458SOL    HW1 1384   2.229   0.892   2.489  1.6614  0.6574 -2.3949
  458SOL    HW2 1385   2.327   1.016   2.530  1.3111 -0.2046  1.5375
  459SOL     OW 1386   1.291   0.579   1.009 -0.3071 -0.8022 -0.2888
  459SOL    HW1 1387   1.303   0.614   0.916 -0.6436  1.3024  0.4031
  459SOL    HW2 1388   1.195   0.555   1.024 -0.6562  0.7559  0.0975
  460SOL     OW 1389   1.015   0.704   0.521 -0.3489  0.5103  0.3731
  460SOL    HW1 1390   0.955   0.633   0.485 -0.6642  1.1676 -0.4390
  460SOL    HW2 1391   0.997   0.717   0.619  1.0987 -1.8871  1.0527
  461SOL     OW 1392   0.133   1.014   1.639  0.0210 -0.6925 -0.2181
  461SOL    HW1 1393   0.048   0.995   1.590 -0.1943 -1.7652  0.5475
  461SOL    HW2 1394   0.187   1.081   1.588 -1.7283  0.7819 -0.2315
  462SOL     OW 1395   2.483   0.153   2.093 -0.0298 -0.0039  0.0619
  462SOL    HW1 1396   2.396   0.107   2.078  0.0100 -0.6984  1.7504
  462SOL    HW2 1397   2.554   0.111   2.037 -0.0763 -1.7799  1.2718
  463SOL     OW 1398   1.559   0.641   1.302 -0.1956 -0.2138 -0.0076
  463SOL    HW1 1399   1.651   0.628   1.339 -0.1297 -0.1506 -0.1498
  463SOL    HW2 1400   1.526   0.555   1.265 -0.6577 -0.5275  1.0928
  464SOL     OW 1401   1.002   1.502   1.976  0.1345  0.3254 -0.1143
  464SOL    HW1 1402   1.005   1.403   1.970 -1.9235  0.1367  1.1212
  464SOL    HW2 1403   1.091   1.540   1.950  0.9066 -1.8008 -0.7612
  465SOL     OW 1404   0.085   0.063   1.897  0.3203  0.6256 -0.4597
  465SOL    HW1 1405   0.165   0.004   1.912 -0.7927 -0.8300 -0.0942
  465SOL    HW2 1406   0.024   0.021   1.831 -1.5348  0.2931  1.3801
  466SOL     OW 1407   2.098   1.227   1.368 -0.0544 -0.2943 -0.1468
  466SOL    HW1 1408   2.036   1.157   1.404  1.3012 -1.5043 -0.0894
  466SOL    HW2 1409   2.068   1.317   1.401 -2.0458 -0.7706 -0.5291
  467SOL     OW 1410   0.723   2.023   1.145  0.4701 -0.4221 -0.0280
  467SOL    HW1 1411   0.698   2.031   1.242  1.0501 -0.6704  0.1481
  467SOL    HW2 1412   0.774   1.938   1.131  0.0935 -0.5506 -0.6193
  468SOL     OW 1413   1.843   0.739   2.535  0.2731 -0.4337 -0.1315
  468SOL    HW1 1414   1.910   0.813   2.523 -1.7173  1.4490 -0.1445
  468SOL    HW2 1415   1.810   0.740   2.629 -0.7530 -0.4134 -0.4821
  469SOL     OW 1416   1.295   0.648   0.597  0.2327 -0.1864 -0.0927
  469SOL    HW1 1417   1.352   0.727   0.617 -0.5246 -0.3265  3.1617
  469SOL    HW2 1418   1.207   0.678   0.559 -0.0116  0.5386  1.0335
  470SOL     OW 1419   0.560   1.612   0.337 -0.5752 -0.3706 -0.6646
  470SOL    HW1 1420   0.498   1.688   0.317  0.1779  0.4653  0.0886
  470SOL    HW2 1421   0.574   1.606   0.436  0.1475 -0.8677 -0.7904
  471SOL     OW 1422   1.297   0.261   0.319  0.2621 -0.1102 -0.3862
  471SOL    HW1 1423   1.364   0.316   0.269  0.8759  0.6832  1.2313
  471SOL    HW2 1424   1.205   0.299   0.305  0.8836  3.0208  2.5571
  472SOL     OW 1425   1.304   0.116   1.409  0.2348 -0.2169 -0.1618
  472SOL    HW1 1426   1.324   0.037   1.352  0.3700  0.0173 -0.4462
  472SOL    HW2 1427   1.277   0.086   1.500 -0.0387 -0.5971 -0.3671
  473SOL     OW 1428   2.372   1.938   1.244  0.3197  0.3854 -0.5338
  473SOL    HW1 1429   2.357   2.035   1.221 -2.2055  0.3550  0.6382
  473SOL    HW2 1430   2.401   1.889   1.163 -1.0856  1.6242 -1.8473
  474SOL     OW 1431   2.334   1.432   1.123  0.1051  0.3776 -0.1367
  474SOL    HW1 1432   2.376   1.515   1.159  1.6023 -0.7163  0.7194
  474SOL    HW2 1433   2.358   1.422   1.026  1.1537  0.2092  0.1271
  475SOL     OW 1434   1.913   2.430   0.847 -0.4941  0.0284  0.0382
  475SOL    HW1 1435   1.975   2.492   0.800 -0.6270 -0.2087 -0.4560
  475SOL    HW2 1436   1.930   2.434   0.946 -0.9083  1.2980  0.0781
  476SOL     OW 1437   0.231   0.515   1.985 -0.1284  0.6195  0.1704
  476SOL    HW1 1438   0.160   0.459   1.942 -1.0439  1.8561  0.0213
  476SOL    HW2 1439   0.295   0.547   1.915  2.1356 -2.5029  0.5778
  477SOL     OW 1440   0.585   1.062   0.332 -0.0769  0.9779 -0.1611
  477SOL    HW1 1441   0.566   1.133   0.264 -0.7081  1.6788  0.7214
  477SOL    HW2 1442   0.518   0.988   0.323  1.5633 -0.3811 -2.1810
  478SOL     OW 1443   2.561   0.634   1.694  0.4858 -0.1106 -1.1245
  478SOL    HW1 1444   2.630   0.691   1.739  0.4918  0.1912 -1.5091
  478SOL    HW2 1445   2.567   0.541   1.728 -0.8332  0.5034  1.0058
  479SOL     OW 1446   0.783   0.604   0.424 -0.0755  0.1130  1.0642
  479SOL    HW1 1447   0.722   0.560   0.358  1.5658  0.1822 -0.5737
  479SOL    HW2 1448   0.729   0.644   0.498 -2.1600  1.4791 -1.0724
  480SOL     OW 1449   0.330   1.231   1.846 -0.2123 -0.2246  0.2634
  480SOL    HW1 1450   0.389   1.152   1.863  0.3863  0.2809  0.6075
  480SOL    HW2 1451   0.362   1.308   1.902 -0.1827  0.5474 -0.7950
  481SOL     OW 1452   2.519   1.833   0.477  0.3477 -0.3323 -0.0571
  481SOL    HW1 1453   2.606   1.784   0.477 -0.2430 -1.4073 -0.1794
  481SOL    HW2 1454   2.527   1.916   0.532  1.6116 -0.1115 -0.5385
  482SOL     OW 1455   0.342   1.770   0.305 -0.4586  0.5016 -0.3579
  482SOL    HW1 1456   0.273   1.764   0.377 -0.8920  2.4495 -0.5816
  482SOL    HW2 1457   0.308   1.825   0.229  1.4239  1.7646 -0.3514
  483SOL     OW 1458   0.568   0.989   1.167  0.5816 -0.3696 -0.4136
  483SOL    HW1 1459   0.550   0.976   1.069 -0.7330 -1.5484 -0.0434
  483SOL    HW2 1460   0.490   1.034   1.209  0.5331 -1.1501  0.3541
  484SOL     OW 1461   0.689   0.004   0.324  0.0306 -0.2349  0.0141
  484SOL    HW1 1462   0.777  -0.010   0.371  0.8965  0.9840 -1.1723
  484SOL    HW2 1463   0.705   0.011   0.225 -1.6733 -2.0750 -0.4555
  485SOL     OW 1464   2.393   0.471   0.216 -0.5358 -0.1342  0.7449
  485SOL    HW1 1465   2.480   0.509   0.186 -2.1753  2.0884 -1.6225
  485SOL    HW2 1466   2.341   0.542   0.265 -1.0661 -1.4217  2.1306
  486SOL     OW 1467   2.559   1.903   0.071 -0.7642 -0.2252  0.2299
  486SOL    HW1 1468   2.490   1.833   0.090 -1.3783  0.1404 -0.6136
  486SOL    HW2 1469   2.514   1.992   0.059 -0.2394 -0.1429 -1.2185
  487SOL     OW 1470   0.700   0.406   2.546  0.0989 -0.2592 -0.3520
  487SOL    HW1 1471   0.707   0.460   2.462  1.5672  0.2462  0.0651
  487SOL    HW2 1472   0.747   0.319   2.533  1.4408  0.3348  0.3102
  488SOL     OW 1473   0.231   0.328   2.185 -0.3546 -0.1425  0.6246
  488SOL    HW1 1474   0.248   0.404   2.123 -0.4344 -0.6086  0.0119
  488SOL    HW2 1475   0.154   0.350   2.245 -0.2946  0.3058  0.5394
  489SOL     OW 1476   1.824   0.510   1.399  0.0140 -0.8576 -0.4714
  489SOL    HW1 1477   1.781   0.503   1.490 -0.8386 -0.8579 -0.8587
  489SOL    HW2 1478   1.922   0.526   1.409 -0.3552  1.0799  0.4592
  490SOL     OW 1479   2.405   1.465   0.289 -0.3806  0.6249 -0.2419
  490SOL    HW1 1480   2.377   1.513   0.372  0.5754  0.1343  0.3828
  490SOL    HW2 1481   2.363   1.509   0.209 -1.8469  0.6939  0.5340
  491SOL     OW 1482   2.222   0.829   1.854 -0.5031  0.0692  0.3145
  491SOL    HW1 1483   2.185   0.918   1.881 -1.0443  0.0304 -0.2569
  491SOL    HW2 1484   2.320   0.827   1.870 -0.5031  0.7411  0.4167
  492SOL     OW 1485   0.539   1.289   0.165  0.6609  0.3911 -0.3309
  492SOL    HW1 1486   0.544   1.271   0.067 -0.2306 -1.2895 -0.1092
  492SOL    HW2 1487   0.465   1.353   0.184  0.2453  0.0274 -0.6923
  493SOL     OW 1488   0.445   1.132   0.564  0.6518 -0.3292 -0.1465
  493SOL    HW1 1489   0.396   1.211   0.527 -2.5813 -1.4016  1.3936
  493SOL    HW2 1490   0.515   1.103   0.500 -0.8494  1.2507 -2.6874
  494SOL     OW 1491   1.115   0.446   0.772 -0.5945 -0.0417 -0.3444
  494SOL    HW1 1492   1.049   0.501   0.824  0.0829 -0.7103  1.2809
  494SOL    HW2 1493   1.080   0.432   0.680 -2.9064 -0.6257  0.5396
  495SOL     OW 1494   0.777   2.481   1.395 -0.3189  0.5664  0.5195
  495SOL    HW1 1495   0.854   2.505   1.335 -1.9773 -0.1749 -2.0801
  495SOL    HW2 1496   0.783   2.385   1.420 -1.5272 -0.1576 -1.6748
  496SOL     OW 1497   1.412   0.619   2.001 -0.3947  0.3033  0.1032
  496SOL    HW1 1498   1.389   0.699   2.055 -0.0534  0.1744  0.4385
  496SOL    HW2 1499   1.394   0.536   2.055 -1.0947  0.1396 -0.3678
  497SOL     OW 1500   0.115   2.290   2.466  0.1527 -0.2600  0.1938
  497SOL    HW1 1501   0.151   2.381   2.485 -1.2421  0.1721  0.8402
  497SOL    HW2 1502   0.068   2.255   2.546 -2.0465 -0.2359 -1.0166
  498SOL     OW 1503   2.006   0.900   1.022  1.0015 -0.2020  0.4511
  498SOL    HW1 1504   2.090   0.929   1.069  1.4072  1.9275 -1.4262
  498SOL    HW2 1505   2.016   0.915   0.924 -1.7299  0.5747  0.2042
  499SOL     OW 1506   0.314   0.817   2.032  0.2344  0.7781 -0.5643
  499SOL    HW1 1507   0.320   0.859   2.123  0.7364 -0.6041  0.0599
  499SOL    HW2 1508   0.253   0.738   2.035  1.8330 -0.5056 -0.9325
  500SOL     OW 1509   2.190   1.056   2.325  0.0665 -0.0528  0.2474
  500SOL    HW1 1510   2.263   1.049   2.256 -1.4090  1.0679 -1.5299
  500SOL    HW2 1511   2.144   1.145   2.315 -1.4519 -0.6679  1.4198
  501SOL     OW 1512   0.968   2.317   1.889 -0.2431  0.3325  0.4476
  501SOL    HW1 1513   0.896   2.377   1.923  1.3103  2.2203  0.5480
  501SOL    HW2 1514   1.035   2.301   1.962 -0.0354 -0.5950  0.0679
  502SOL     OW 1515   1.232   1.389   2.208 -0.0195 -0.4965  0.3119
  502SOL    HW1 1516   1.189   1.449   2.275  0.0969  0.1972 -0.2218
  502SOL    HW2 1517   1.329   1.377   2.231  0.0302 -0.2261  0.2456
  503SOL     OW 1518   1.902   0.062   1.286  0.5080 -0.2068  0.6496
  503SOL    HW1 1519   1.862   0.147   1.251  0.2401 -0.3611  0.5772
  503SOL    HW2 1520   1.994   0.080   1.319  0.5136  0.0802  0.4836
  504SOL     OW 1521   2.119   1.079   1.934 -0.4771 -0.9830  0.0637
  504SOL    HW1 1522   2.041   1.059   1.994 -1.3196  1.0741 -0.2854
  504SOL    HW2 1523   2.173   1.153   1.972  0.9611 -1.9469 -0.0423
  505SOL     OW 1524   1.712   2.174   0.182 -0.0885 -0.1523 -0.1579
  505SOL    HW1 1525   1.709   2.272   0.200  0.7604  0.0188 -0.8544
  505SOL    HW2 1526   1.706   2.123   0.268 -2.3875  0.4331  0.0908
  506SOL     OW 1527   2.346   0.134   1.634 -0.0174 -0.0136 -0.0333
  506SOL    HW1 1528   2.444   0.154   1.632 -0.0056 -0.1617 -1.4720
  506SOL    HW2 1529   2.295   0.212   1.598 -0.4714  0.2078  1.0487
  507SOL     OW 1530   1.934   2.435   1.115  0.1064  0.7184  0.7148
  507SOL    HW1 1531   1.869   2.370   1.155 -0.6791  0.3200 -1.1334
  507SOL    HW2 1532   1.962   2.501   1.185  0.4829 -1.2146  2.5126
  508SOL     OW 1533   2.137   0.050   2.527 -0.1732 -0.1099  1.2207
  508SOL    HW1 1534   2.075   0.047   2.606  2.1841 -1.2184  3.1630
  508SOL    HW2 1535   2.217   0.106   2.550  1.9201 -2.7217  0.8019
  509SOL     OW 1536   2.101   1.549   2.087  0.4025  0.3635 -0.6885
  509SOL    HW1 1537   2.111   1.500   2.000 -1.0117  2.5365 -2.1847
  509SOL    HW2 1538   2.131   1.644   2.075  0.5986  0.5932  1.3529
  510SOL     OW 1539   1.106   0.645   2.445 -0.0710  0.0172 -0.8417
  510SOL    HW1 1540   1.089   0.625   2.348  1.2213 -0.7829 -0.9197
  510SOL    HW2 1541   1.018   0.657   2.492 -0.9268 -3.3213 -1.3431
  511SOL     OW 1542   1.176   0.453   0.029 -0.6453  0.3641 -0.2801
  511SOL    HW1 1543   1.270   0.421   0.021 -0.6846  0.0248  0.5507
  511SOL    HW2 1544   1.151   0.502  -0.054 -0.2713 -0.9461 -1.2077
  512SOL     OW 1545   2.373   0.614   0.606  0.1690 -0.4355  0.1526
  512SOL    HW1 1546   2.367   0.706   0.644 -1.5621 -0.3660 -0.2002
  512SOL    HW2 1547   2.345   0.616   0.510 -1.3458 -1.5357  0.5383
  513SOL     OW 1548   2.573   1.844   2.106 -0.3669 -0.0314  0.1611
  513SOL    HW1 1549   2.545   1.874   2.197 -1.2232  1.5413 -0.5671
  513SOL    HW2 1550   2.510   1.882   2.038 -0.6412 -2.3723 -1.0085
  514SOL     OW 1551   1.980   1.582   2.348  0.0790 -0.5041 -0.4785
  514SOL    HW1 1552   2.013   1.670   2.383 -0.1718  0.0400 -1.5647
  514SOL    HW2 1553   2.016   1.567   2.257 -0.9408 -0.8959 -0.8369
  515SOL     OW 1554   1.255   2.520   1.614 -0.0277 -0.2690 -0.1867
  515SOL    HW1 1555   1.200   2.439   1.592 -0.1600  0.0674 -1.0954
  515SOL    HW2 1556   1.349   2.491   1.635 -0.9445 -1.1410  3.6510
  516SOL     OW 1557   1.909   1.702   0.147  0.3259  0.4806  1.0772
  516SOL    HW1 1558   1.858   1.699   0.061 -0.9353  1.3977  1.7660
  516SOL    HW2 1559   1.967   1.784   0.148  1.0487 -0.0128  0.7360
  517SOL     OW 1560   1.179   0.331   1.293 -0.2593  0.3759 -0.2955
  517SOL    HW1 1561   1.181   0.240   1.336  1.0903  1.2326  1.6027
  517SOL    HW2 1562   1.269   0.350   1.253 -0.7512  0.6311 -1.3292
  518SOL     OW 1563   0.240   1.931   0.107  0.2952 -0.1431  0.3649
  518SOL    HW1 1564   0.141   1.913   0.106  0.4654 -1.4596 -2.2020
  518SOL    HW2 1565   0.257   2.019   0.151 -2.2265  1.0186 -0.7491
  519SOL     OW 1566   1.037   0.665   2.184 -0.2321 -0.0418 -0.3975
  519SOL    HW1 1567   0.943   0.693   2.162  0.1359  1.0332 -0.6387
  519SOL    HW2 1568   1.065   0.593   2.120 -0.9596 -0.5444 -0.1769
  520SOL     OW 1569   0.213   1.105   0.242 -0.8063  0.6516  0.5582
  520SOL    HW1 1570   0.258   1.097   0.331 -0.9626  0.5797  0.6311
  520SOL    HW2 1571   0.236   1.192   0.200 -0.4669  0.5471  0.5239
  521SOL     OW 1572   1.747   2.290   1.226  0.3948 -0.6321  0.4178
  521SOL    HW1 1573   1.733   2.201   1.182  0.3405 -0.0112 -0.8638
  521SOL    HW2 1574   1.700   2.291   1.314 -1.4636 -1.1391 -0.5232
  522SOL     OW 1575   0.752   1.764   1.554  0.4790 -0.2443  0.1379
  522SOL    HW1 1576   0.682   1.694   1.570 -0.2633 -0.2726 -2.6878
  522SOL    HW2 1577   0.843   1.725   1.569  0.0464 -1.5949 -0.5877
  523SOL     OW 1578   1.335   2.060   1.310 -0.1510 -0.1932 -0.7217
  523SOL    HW1 1579   1.419   2.006   1.316  0.1011  0.3539  2.2228
  523SOL    HW2 1580   1.257   1.999   1.299  0.4672 -0.8169 -1.8589
  524SOL     OW 1581   1.929   2.213   0.448 -0.0350  0.2542  0.3433
  524SOL    HW1 1582   2.004   2.205   0.382  0.1051  0.3478  0.4887
  524SOL    HW2 1583   1.910   2.310   0.465  0.9398  0.2616  1.5653
  525SOL     OW 1584   0.772   0.842   2.126  0.1133 -0.2563 -0.2574
  525SOL    HW1 1585   0.810   0.863   2.036 -0.7727 -0.7532 -0.7642
  525SOL    HW2 1586   0.693   0.781   2.116 -0.1066 -0.1859  0.8470
  526SOL     OW 1587   0.620   0.411   2.214 -0.1911  0.3577 -0.6556
  526SOL    HW1 1588   0.560   0.331   2.204 -0.3363  0.5669 -1.4974
  526SOL    HW2 1589   0.706   0.395   2.165 -0.1219  0.6229 -0.6205
  527SOL     OW 1590   0.130   0.892   0.434 -1.0164 -0.3025 -0.4504
  527SOL    HW1 1591   0.180   0.907   0.520 -0.7630  2.0795 -0.9624
  527SOL    HW2 1592   0.147   0.798   0.403 -0.0734 -0.8183  1.4155
  528SOL     OW 1593   2.486   2.253   1.232  0.2911 -0.1125 -0.0283
  528SOL    HW1 1594   2.430   2.334   1.246  0.9327  0.1297  1.3076
  528SOL    HW2 1595   2.552   2.245   1.307  0.7566 -1.4408 -0.5535
  529SOL     OW 1596   2.401   2.109   0.021 -0.3227  0.5601 -0.1864
  529SOL    HW1 1597   2.312   2.066   0.035 -0.4183  0.6508 -0.5056
  529SOL    HW2 1598   2.389   2.207   0.003 -0.2454  0.3754 -1.3373
  530SOL     OW 1599   0.841   0.354   2.016 -0.3732  0.4954 -0.0129
  530SOL    HW1 1600   0.828   0.275   1.956 -3.0104  0.8952 -0.0850
  530SOL    HW2 1601   0.919   0.408   1.983  0.2506 -0.9906 -1.1266
  531SOL     OW 1602   1.358   2.035   1.675 -0.6478  0.2119 -1.0850
  531SOL    HW1 1603   1.296   1.980   1.732 -0.5674  0.0467 -1.1561
  531SOL    HW2 1604   1.453   2.008   1.695 -0.6174  0.1886 -1.2606
  532SOL     OW 1605   0.084   0.536   0.597 -0.1525  0.0590 -0.1287
  532SOL    HW1 1606  -0.012   0.528   0.625 -0.5492 -0.0298 -1.4360
  532SOL    HW2 1607   0.094   0.613   0.534  0.8397  0.6879  0.7589
  533SOL     OW 1608   2.276   0.218   0.585  0.2130 -0.2448 -0.2972
  533SOL    HW1 1609   2.328   0.259   0.510  1.5083 -1.1985  0.0460
  533SOL    HW2 1610   2.320   0.134   0.614  0.3274  0.5932  2.2166
  534SOL     OW 1611   1.189   0.053   0.954 -0.4973  0.3895  0.3941
  534SOL    HW1 1612   1.237   0.140   0.959 -0.4711  0.4027 -0.0530
  534SOL    HW2 1613   1.255  -0.022   0.958 -0.5188  0.3856  0.7642
  535SOL     OW 1614   2.516   1.050   0.393  0.1381  0.3845  0.6703
  535SOL    HW1 1615   2.535   1.137   0.439  0.6549  0.5632  0.1337
  535SOL    HW2 1616   2.595   0.990   0.402 -0.4041 -0.2455  1.4805
  536SOL     OW 1617   0.990   0.035   1.180  0.3912 -0.0659  0.1061
  536SOL    HW1 1618   0.923  -0.034   1.151 -0.0129  0.8478 -1.2045
  536SOL    HW2 1619   1.060   0.046   1.109  2.1248 -1.1828  1.5602
  537SOL     OW 1620   1.218   1.623   0.853  0.2747 -0.0370 -0.1220
  537SOL    HW1 1621   1.310   1.664   0.854  0.6953 -0.9620 -0.0610
  537SOL    HW2 1622   1.203   1.573   0.938 -0.5839  0.7325  0.1880
  538SOL     OW 1623   2.116   2.041   0.899  0.0095 -0.2615 -0.1521
  538SOL    HW1 1624   2.039   2.093   0.863  0.2354  0.0824 -0.1401
  538SOL    HW2 1625   2.185   2.104   0.935 -0.1677 -0.5998  0.7911
  539SOL     OW 1626   1.530   2.383   2.355 -0.7122  0.7416  0.4408
  539SOL    HW1 1627   1.529   2.289   2.391 -2.0206  1.0285  1.2208
  539SOL    HW2 1628   1.437   2.419   2.354 -0.1654  2.2340  0.6703
  540SOL     OW 1629   0.184   1.013   1.241  0.5381  0.4781 -0.1366
  540SOL    HW1 1630   0.246   1.029   1.317  0.7998 -1.7212  0.1610
  540SOL    HW2 1631   0.098   1.063   1.257  0.6879  0.2720  1.4477
  541SOL     OW 1632   1.413   1.536   1.149 -0.3281 -0.3619 -0.4903
  541SOL    HW1 1633   1.448   1.445   1.128  1.7593  0.6248 -1.6398
  541SOL    HW2 1634   1.490   1.597   1.171 -1.7102  1.0065  0.8192
  542SOL     OW 1635   1.737   0.771   0.216 -0.4536  0.5502  0.0572
  542SOL    HW1 1636   1.678   0.731   0.287  0.0854  1.1793  0.8736
  542SOL    HW2 1637   1.693   0.854   0.180 -0.4935  0.5070  0.0056
  543SOL     OW 1638   2.286   2.419   0.804  0.0323  0.1067  0.4418
  543SOL    HW1 1639   2.352   2.463   0.743 -0.5048 -0.7897 -0.8284
  543SOL    HW2 1640   2.194   2.428   0.766 -0.3892 -0.0174  1.3999
  544SOL     OW 1641   2.030   2.546   2.053  0.1094  0.1367 -0.0586
  544SOL    HW1 1642   2.017   2.533   2.151  1.1567 -0.3771  0.0197
  544SOL    HW2 1643   1.941   2.562   2.010 -0.3733  0.2419  0.9519
  545SOL     OW 1644   1.443   0.404   0.511  0.6385  0.0790  0.2790
  545SOL    HW1 1645   1.383   0.480   0.537  0.5829 -0.0882  0.6386
  545SOL    HW2 1646   1.387   0.328   0.477  0.7555  0.6695 -1.3394
  546SOL     OW 1647   0.220   2.171   0.251  0.0820 -0.3756  0.2074
  546SOL    HW1 1648   0.264   2.258   0.229  1.8660 -1.5936 -1.3624
  546SOL    HW2 1649   0.249   2.141   0.342 -1.2476  1.0139  1.1563
  547SOL     OW 1650   0.437   1.572   0.020 -0.1458  0.1399  0.1309
  547SOL    HW1 1651   0.520   1.529  -0.015  0.7092 -0.0345  2.2241
  547SOL    HW2 1652   0.456   1.666   0.046 -0.8483  0.3874 -0.2110
  548SOL     OW 1653   2.200   1.896   0.676 -0.7544 -0.1488 -0.4474
  548SOL    HW1 1654   2.294   1.894   0.711 -0.5647 -2.1487 -0.9338
  548SOL    HW2 1655   2.144   1.956   0.733  0.4343 -0.2226  0.8564
  549SOL     OW 1656   2.518   2.458   2.300  0.1052 -0.1352  0.2680
  549SOL    HW1 1657   2.572   2.401   2.362  0.3533  0.6213  0.7667
  549SOL    HW2 1658   2.570   2.472   2.215 -0.4853 -1.6606 -0.3816
  550SOL     OW 1659   1.819   1.469   0.264 -0.6625 -0.4678  0.1051
  550SOL    HW1 1660   1.831   1.551   0.208  0.1270 -1.6422 -1.5213
  550SOL    HW2 1661   1.831   1.387   0.207 -2.5336 -1.7585  1.4242
  551SOL     OW 1662   2.502   1.264   0.545 -0.2432 -0.0478  0.3400
  551SOL    HW1 1663   2.519   1.350   0.593  0.4481 -0.2068  0.3911
  551SOL    HW2 1664   2.411   1.266   0.503 -0.4488  0.4859  0.8075
  552SOL     OW 1665   0.723   2.303   2.529  0.1679  0.0209 -0.4732
  552SOL    HW1 1666   0.759   2.225   2.477 -1.6774 -1.4508  0.3260
  552SOL    HW2 1667   0.623   2.298   2.530  0.0109  2.4101 -0.3386
  553SOL     OW 1668   2.253   2.106   1.837 -0.4947  0.3703  0.1044
  553SOL    HW1 1669   2.349   2.099   1.864 -0.4286 -1.6012 -0.4783
  553SOL    HW2 1670   2.204   2.164   1.902  1.0961  1.4534  0.3752
  554SOL     OW 1671   1.252   1.679   2.383  0.1992  0.2916  0.3778
  554SOL    HW1 1672   1.194   1.761   2.376  1.4258  1.1692  0.2147
  554SOL    HW2 1673   1.199   1.605   2.424 -1.2813  0.8137 -0.5090
  555SOL     OW 1674   2.124   0.557   0.032 -0.3297  0.1225 -0.2452
  555SOL    HW1 1675   2.072   0.473   0.013 -0.0227 -0.1365  0.0407
  555SOL    HW2 1676   2.215   0.533   0.065 -1.0715  0.5246  2.2907
  556SOL     OW 1677   1.689   1.797   0.627 -0.1874 -0.0170  0.1131
  556SOL    HW1 1678   1.700   1.713   0.573  0.5100 -0.3579  0.7501
  556SOL    HW2 1679   1.603   1.793   0.678  0.7586 -1.3331  1.7435
  557SOL     OW 1680   0.140   1.971   1.694 -0.3988 -0.1703  0.4628
  557SOL    HW1 1681   0.218   2.032   1.681 -1.9046  2.2196  1.7490
  557SOL    HW2 1682   0.095   1.956   1.606  0.7532 -0.5347 -0.0829
  558SOL     OW 1683   0.107   1.634   0.478 -0.5646  0.8160  0.2396
  558SOL    HW1 1684   0.180   1.634   0.546 -1.2061  2.4488  0.9835
  558SOL    HW2 1685   0.037   1.567   0.504  0.6869 -0.8529 -0.5511
  559SOL     OW 1686   2.484   1.746   1.637 -0.1804 -0.1383 -0.0784
  559SOL    HW1 1687   2.522   1.664   1.595  0.1213 -0.8101  1.4390
  559SOL    HW2 1688   2.492   1.823   1.573 -0.1262 -1.1809 -1.3824
  560SOL     OW 1689   1.900   1.521   0.852  0.0643 -0.0832  0.2269
  560SOL    HW1 1690   1.808   1.503   0.887 -0.6155  0.6784 -1.0694
  560SOL    HW2 1691   1.968   1.495   0.921 -1.1467  0.2360  1.5998
  561SOL     OW 1692   1.339   0.068   2.104 -0.3303 -0.0626  0.4584
  561SOL    HW1 1693   1.279   0.134   2.060 -0.2570 -1.7397 -2.3968
  561SOL    HW2 1694   1.352  -0.011   2.044  0.5897 -2.1367  3.1629
  562SOL     OW 1695   2.086   2.576   0.655 -0.0490  0.6749  0.2663
  562SOL    HW1 1696   2.017   2.646   0.667  0.4697  1.4396 -1.0083
  562SOL    HW2 1697   2.177   2.619   0.653  0.3213 -0.1028  0.0419
  563SOL     OW 1698   1.176   2.202   1.546  0.1752 -0.5209 -0.8442
  563SOL    HW1 1699   1.194   2.194   1.448  0.3130  1.5357 -1.0314
  563SOL    HW2 1700   1.252   2.163   1.597  2.1167  1.9303 -1.6227
  564SOL     OW 1701   0.634   2.351   0.706 -0.6910 -0.2272 -0.6945
  564SOL    HW1 1702   0.617   2.312   0.615 -1.9199 -2.0343  0.2384
  564SOL    HW2 1703   0.632   2.277   0.774 -0.5740  1.1843  0.8907
  565SOL     OW 1704   0.923   2.157   1.673  0.1655  0.1708 -0.1545
  565SOL    HW1 1705   1.014   2.140   1.635  0.3437  0.7340  0.0014
  565SOL    HW2 1706   0.932   2.208   1.759 -0.3160  0.7931 -0.4619
  566SOL     OW 1707   1.995   2.586   1.673 -0.1027 -0.5055 -0.7029
  566SOL    HW1 1708   1.916   2.595   1.734  1.3041 -3.3729  1.8188
  566SOL    HW2 1709   2.035   2.495   1.684  4.7137  1.3644 -0.2995
  567SOL     OW 1710   1.468   1.942   0.136 -0.6193 -0.6083 -0.3888
  567SOL    HW1 1711   1.531   1.976   0.066 -1.5426  1.6903 -0.2002
  567SOL    HW2 1712   1.516   1.878   0.196  1.1127 -0.0521 -1.1217
   2.58927   2.58927   2.58927
